default_name
 55065
  19.0711721  17.1412866  36.2226839  18.3544373  17.5981724  36.7682548
  19.5002176  16.4222783  36.7875267  18.6914711  16.9113842  35.3154510
  20.1231721  18.1042866  35.9646839  21.0656775  17.7462858  36.3789521
  20.2961721  18.3042866  34.4566839  19.3714786  18.7375886  34.0755139
  21.1142695  19.0098030  34.3115517  20.5791721  17.1002866  33.7556839
  20.6762716  17.2902442  32.8196884  19.8511721  19.5032866  36.5796839
  20.8041721  20.0492866  37.1586839  18.6841721  20.1522866  36.4686839
  17.9819007  19.6702916  35.9259179  18.3761721  21.5182866  36.9646839
  19.1379197  22.2203328  36.6256101  17.0101721  21.9762866  36.4246839
  17.0633470  21.8763750  35.3405763  16.2767230  21.2725953  36.8183474
  16.5831721  23.4332866  36.7926839  15.5592371  23.5404367  36.4346662
  16.5932932  23.4779980  37.8817204  17.6081721  24.8112866  36.1196839
  16.9571721  26.3202866  36.9286839  17.0644688  26.2287957  38.0095242
  17.5156525  27.1893418  36.5809145  15.9034608  26.4419369  36.6776959
  18.4111721  21.7472866  38.4726839  18.7331721  22.8442866  38.9526839
  18.1961721  20.6472866  39.2156839  17.6918962  19.8935506  38.7710638
  18.4531721  20.5572866  40.6666839  17.8680470  21.3457598  41.1400102
  18.0031721  19.1272866  41.2566839  18.2471627  18.3760766  40.5055164
  18.6871721  18.7592866  42.5946839  18.4432500  19.5098454  43.3465244
  18.3334034  17.7836266  42.9279044  19.7674564  18.7247483  42.4536445
  16.4841721  19.1512866  41.5566839  16.2821684  20.0977390  42.0582047
  15.9773665  19.1365718  40.5917844  15.9841721  18.0282866  42.3966839
  16.4902199  18.0426277  43.3619869  14.9103083  18.1374533  42.5483360
  16.1854203  17.0814598  41.8955672  19.8841721  20.9782866  41.0466839
  20.0751721  21.5032866  42.1726839  20.8911721  20.8302866  40.1576839
  20.7195884  20.2338406  39.3608712  22.2411721  21.4112866  40.3206839
  22.5933305  21.2138505  41.3331574  23.2341721  20.7492866  39.3076839
  22.6979408  20.7272653  38.3589630  24.6201721  21.4162866  39.1026839
  25.1572172  21.4382522  40.0509453  25.1946343  20.8449539  38.3735260
  24.4836249  22.4348464  38.7393778  23.4941721  19.4702866  39.7896839
  24.1026799  19.0226525  39.1972801  22.3111721  22.9692866  40.1776839
  22.9601721  23.6042866  41.0476839  21.6241721  23.6732866  39.2856839
  21.1252420  23.0974705  38.6226576  21.5651721  25.1342866  39.1236839
  22.5781660  25.5318452  39.1860524  20.9521721  25.5522866  37.7636839
  19.9343622  25.1691853  37.6902243  20.9367067  26.6397107  37.6904041
  21.5535395  25.1424775  36.9521957  20.7801721  25.7272866  40.2726839
  21.1861721  26.6282866  40.9316839  19.7131721  25.0172866  40.6616839
  19.3127566  24.4331553  39.9415746  19.0021721  25.1632866  41.8836839
  18.6457383  26.1760056  42.0719769  17.7961721  24.1512866  41.9996839
  18.1310417  23.2311024  41.5209107  17.3051721  23.8412866  43.4056839
  16.9696802  24.7609814  43.8849618  16.4760033  23.1356456  43.3542011
  18.1175086  23.4047894  43.9867853  16.6831721  24.6562866  41.0776839
  16.2658642  25.5218813  41.5921747  17.1967723  24.9841995  40.1739210
  15.5751721  23.7112866  40.7086839  15.0607768  23.3832811  41.6119611
  14.8679880  24.2183461  40.0522691  15.9916856  22.8455977  40.1937090
  20.0051721  25.1712866  43.1346839  19.9381721  25.9952866  44.0206839
  20.9221721  24.2442866  43.2286839  20.8515043  23.4706632  42.5832289
  21.9271721  24.1602866  44.3236839  21.4615483  24.4049186  45.2783822
  22.4281721  22.7122866  44.3796839  22.8688914  22.4653141  43.4138312
  23.4581721  22.5142866  45.4686839  23.0180152  22.7606363  46.4349516
  23.7868036  21.4750217  45.4740676  24.3132996  23.1642592  45.2832299
  21.3361721  21.8022866  44.6756839  21.6690086  20.9023588  44.7065086
  23.0531721  25.2492866  44.2526839  23.5501721  25.7392866  45.2546839
  23.6521721  25.5312866  43.1056839  23.4488886  24.9304223  42.3197213
  24.6131721  26.6002866  42.9226839  25.4663601  26.5826747  43.6008132
  25.1241721  26.5502866  41.4366839  24.2719410  26.2984843  40.8054961
  25.7611721  27.9142866  40.9436839  26.6138088  28.1665290  41.5741481
  26.0924508  27.8087478  39.9106221  25.0161989  28.7074824  41.0065686
  26.0561721  25.3512866  41.3646839  26.8654161  25.5918469  42.0541444
  25.4704325  24.5247501  41.7669849  26.6431721  24.9482866  40.0106839
  27.2294698  25.7742132  39.6079431  27.2843978  24.0759797  40.1372127
  25.8344856  24.7071185  39.3207826  23.9431721  27.9002866  43.2696839
  24.4491721  28.6932866  44.0916839  22.6781721  28.1762866  42.7826839
  22.4013966  27.7247506  41.9226782  21.7591721  29.2342866  43.3686839
  22.2564151  30.1996012  43.2737287  20.3601721  29.3232866  42.6786839
  19.9101349  28.3305457  42.6842583  19.7361623  30.0077539  43.2533284
  20.4691721  29.8102866  41.2766839  21.0933983  29.0886473  40.7497312
  19.4601846  29.7861117  40.8650265  21.1671721  31.4812866  41.0556839
  20.2031721  32.4172866  42.3606839  20.4004479  31.9824519  43.3405309
  20.5100533  33.4631944  42.3594450  19.1372339  32.3516746  42.1425741
  21.4951721  29.2612866  44.8856839  21.5191721  30.3402866  45.4876839
  21.2741721  28.0852866  45.5896839  21.0755457  27.2378285  45.0773738
  21.2551721  28.0332866  47.0336839  20.5383759  28.7695586  47.3972851
  20.7861721  26.6832866  47.4236839  21.4983828  25.9357001  47.0744414
  20.7033481  26.6263421  48.5090400  19.8112109  26.4930904  46.9749354
  22.5671721  28.3342866  47.6746839  22.5831721  29.0372866  48.7456839
  23.7051721  27.9222866  47.1046839  23.6368723  27.3476222  46.2769187
  25.0611721  28.1642866  47.6906839  25.0792084  27.9259276  48.7541494
  26.0311721  27.2642866  46.9806839  25.7918969  26.3037167  47.4369206
  25.7796351  27.2350979  45.9205060  27.5491721  27.5512866  47.1446839
  27.7797218  28.4714791  46.6078474  27.9471721  27.6992866  48.5846839
  27.7173383  26.7792573  49.1221049  29.0168924  27.8988065  48.6478591
  27.3966581  28.5274025  49.0310681  28.2331721  26.4452866  46.4146839
  27.9324008  26.4601069  45.3671075  29.3129951  26.5767237  46.4840234
  27.9547690  25.4895004  46.8586021  25.4381721  29.6972866  47.6296839
  25.5661721  30.3032866  48.6766839  25.2791721  30.3052866  46.4486839
  25.1204565  29.7475389  45.6217461  25.4041721  31.7602866  46.2936839
  26.3914343  32.0276220  46.6704391  25.2521721  32.3212866  44.8856839
  24.3037975  31.9441612  44.5029813  25.2378158  33.4111803  44.8806048
  26.4131721  31.8142866  43.9836839  27.7761721  31.8422866  44.4696839
  27.9873292  32.1175775  45.5029927  28.8101721  31.5182866  43.6176839
  29.8421047  31.6222620  43.9529541  28.5391721  31.0382866  42.3426839
  29.4961721  30.6022866  41.5816839  30.3597967  30.6552493  41.9975532
  27.1921721  31.0192866  41.7866839  26.9838984  30.7363095  40.7548668
  26.1351721  31.3872866  42.6436839  25.1057379  31.3472790  42.2876437
  24.4431721  32.5362866  47.1486839  24.8891721  33.5582866  47.6736839
  23.2261721  32.1112866  47.3696839  22.9123506  31.3370469  46.8020852
  22.2311721  32.7592866  48.3176839  22.0493468  33.7861166  48.0004159
  20.8991721  32.0102866  48.3346839  21.0382841  30.9420790  48.5010555
  20.2206094  32.4095406  49.0885067  20.3571721  32.2162866  47.0656839
  19.5099256  31.7692230  47.0031760  22.7151721  32.9562866  49.7836839
  22.9631721  34.0672866  50.2656839  23.0601721  31.8262866  50.4246839
  22.8410939  30.9578970  49.9577754  23.6911721  31.7662866  51.7086839
  23.1325706  32.1921522  52.5421718  23.8521721  30.2112866  51.9236839
  24.1805541  29.7709966  50.9821902  24.8761721  29.8782866  53.0326839
  24.5482121  30.3178827  53.9746490  24.9528335  28.7967277  53.1442819
  25.8505809  30.2850983  52.7622565  22.5201721  29.4622866  52.2486839
  22.2914570  29.6251567  53.3018997  21.7316130  29.8973400  51.6346786
  22.6121721  27.9302866  51.9676839  23.4002637  27.4944223  52.5817147
  21.6601955  27.4580603  52.2102574  22.8404222  27.7666058  50.9144933
  25.0331721  32.4522866  51.9006839  25.2091721  32.9962866  53.0096839
  25.8831721  32.5932866  50.8896839  25.8636327  31.9006810  50.1548268
  27.0251721  33.5612866  50.9226839  27.4800508  33.5931350  51.9127194
  28.0631721  33.0982866  49.9296839  27.5968127  33.0645746  48.9450664
  29.2781721  34.0222866  49.8856839  29.7453667  34.0561492  50.8699011
  29.9954070  33.6457664  49.1563642  28.9622266  35.0254242  49.5993360
  28.5621721  31.6602866  50.3226839  27.7199541  30.9683879  50.3158210
  29.3117577  31.3265395  49.6051645  29.0012860  31.6874482  51.3199512
  26.5451721  35.0332866  50.8496839  26.9831721  35.8372866  51.6976839
  25.5971721  35.3402866  49.9596839  24.9660423  34.6281555  49.6210933
  25.4381721  36.6742866  49.4716839  26.4054260  37.0987915  49.2027699
  24.5751721  36.6532866  48.2606839  24.9180099  36.0422814  47.4256784
  23.5104366  36.4838663  48.4211054  24.7361721  38.3972866  47.7146839
  23.9473605  38.2830149  46.6499697  24.7631721  37.4482866  50.6256839
  25.1211721  38.5562866  50.9446839  23.6671721  36.9002866  51.2076839
  23.3971276  35.9934412  50.8544041  22.7481721  37.5922866  52.1456839
  22.5325031  38.6129012  51.8295636  21.4291721  36.8252866  52.2546839
  21.6674525  35.7691305  52.3806045  20.5681721  37.2932866  53.4196839
  20.3290812  38.3493145  53.2942181  19.6457736  36.7131464  53.4464924
  21.1123140  37.1529630  54.3536649  20.6811721  36.9722866  50.9636839
  21.2795880  36.5661561  50.1481727  19.7375618  36.4302552  51.0261418
  20.4817818  38.0274754  50.7768123  23.3981721  37.9302866  53.4856839
  23.2041721  39.0772866  53.9306839  24.2741721  37.0472866  53.9066839
  24.3949544  36.2073035  53.3590168  24.8741721  37.1002866  55.2246839
  24.4417443  37.8030261  55.9369076  24.9781721  35.6412866  55.9326839
  25.6182913  35.0024030  55.3242643  25.5561721  35.7532866  57.3256839
  24.9163039  36.3916918  57.9348706  25.6145158  34.7624427  57.7761557
  26.5548863  36.1865670  57.2714629  23.6201721  34.8222866  55.8156839
  23.3749834  34.6725991  54.7642191  23.7361284  33.8540083  56.3026037
  22.8172161  35.3780602  56.2999134  26.2031721  37.9752866  55.1346839
  26.5361721  38.7402866  56.0106839  26.8191721  37.8652866  53.9316839
  26.4687857  37.1589629  53.3004664  27.9461721  38.6932866  53.4916839
  28.7934171  38.5419689  54.1605471  28.2303842  38.4137819  52.4771890
  27.5551721  40.1742866  53.5096839  28.1791721  41.0282866  54.1016839
  26.4521721  40.5032866  52.8786839  25.9496069  39.8343045  52.3130069
  26.0161721  41.9252866  52.8436839  26.8689310  42.5772123  52.6542254
  24.9901721  42.1202866  51.7186839  24.3317594  41.2518642  51.7395233
  24.4242355  43.0112755  51.9906297  25.5681721  42.2922866  50.3006839
  26.0749516  41.3793997  49.9877736  24.4051721  42.5842866  49.3446839
  23.8981590  43.4973480  49.6567023  24.7891660  42.7103218  48.3323773
  23.7003888  41.7530299  49.3645100  26.5371721  43.4452866  50.2586839
  27.3562416  43.2576836  50.9529676  26.9342320  43.5502777  49.2490198
  26.0230506  44.3632080  50.5436374  25.5501721  42.4232866  54.1716839
  25.9321721  43.5672866  54.4926839  24.8411721  41.6032866  54.9306839
  24.5524024  40.7229269  54.5285917  24.3301721  41.9622866  56.2516839
  23.7364691  42.8724235  56.1664382  23.4631721  40.8732866  56.8436839
  22.5262246  40.7691472  56.2965244  24.0106840  39.9314435  56.8081563
  23.0901721  41.1082866  58.3106839  22.0491721  41.9692866  58.5696839
  21.5457132  42.4898413  57.7550356  21.6381721  42.1742866  59.8896839
  20.7985484  42.8307446  60.1181475  22.3381721  41.5062866  60.9526839
  22.0435890  41.6795138  61.9877264  23.3821721  40.6462866  60.6656839
  23.8935863  40.1389258  61.4836941  23.7761721  40.4282866  59.3706839
  24.5997896  39.7464036  59.1590481  25.4601721  42.3892866  57.1956839
  25.3681721  43.4492866  57.8106839  26.4571721  41.5582866  57.4036839
  26.4685615  40.6999750  56.8714520  27.5981721  41.8122866  58.4006839
  27.1288458  42.0903442  59.3443554  28.1211593  40.8635790  58.5212554
  28.6291721  42.9132866  58.0026839  29.1811721  43.6442866  58.8776839
  28.9871721  43.1062866  56.6986839  28.8078661  42.3053489  56.1100861
  29.7861721  44.2222866  56.1416839  30.7017679  44.3383389  56.7216110
  30.1631721  43.9572866  54.6776839  29.4020122  43.8435780  53.9057997
  30.6296083  44.9381301  54.5855779  31.2341721  42.8852866  54.4696839
  32.3731721  43.1182866  54.6696839  30.8251721  41.6702866  54.4526839
  31.4874361  40.9195569  54.3188517  29.8426608  41.4696713  54.5732064
  29.0861721  45.5662866  56.4786839  29.6561721  46.4122866  57.1386839
  27.8461721  45.7232866  56.0526839  27.4601600  45.1252125  55.3361636
  27.0811721  46.8712866  56.4696839  27.6180210  47.7789766  56.1940185
  25.6841721  46.9012866  55.8036839  25.1979442  45.9531226  56.0331758
  25.1275769  47.7159379  56.2669820  25.5701721  47.0952866  54.3066839
  26.2851721  48.0882866  53.6426839  26.9286672  48.7228568  54.2520562
  26.2071721  48.2932866  52.2556839  26.7112180  49.1211754  51.7570470
  25.4551721  47.3952866  51.5176839  25.4500788  47.4804844  50.4310306
  24.7221721  46.4072866  52.1336839  24.1294573  45.7260018  51.5232412
  24.7311721  46.2722866  53.5126839  24.0915917  45.5310883  53.9919143
  26.9671721  47.0972866  57.9576839  26.9061721  48.2612866  58.3346839
  26.8931721  46.0632866  58.8056839  26.6419490  45.1523326  58.4491043
  27.0131721  46.2352866  60.2756839  26.2781993  46.9776456  60.5868387
  26.7831721  44.9452866  61.0856839  26.0705025  44.3291258  60.5374622
  27.7704842  44.4856769  61.0401438  26.3521721  45.0562866  62.5086839
  27.1953857  45.4508694  63.0756021  25.1191721  45.9732866  62.7116839
  24.2753665  45.5790631  62.1453989  24.8614802  46.0074585  63.7702338
  25.3523383  46.9791296  62.3623791  25.8621721  43.7072866  63.0716839
  26.6684290  42.9758047  63.0170632  25.5583041  43.8354214  64.1106001
  25.0128574  43.3555242  62.4859992  28.3301721  46.9082866  60.8276839
  28.3231721  47.7762866  61.7476839  29.4661721  46.4482866  60.2996839
  29.4955493  45.6995987  59.6224079  30.7371721  47.1482866  60.6336839
  30.8901921  47.1411343  61.7128655  31.9751721  46.4392866  59.9416839
  31.7997545  46.4908959  58.8671308  33.3391721  47.0432866  60.2636839
  33.5155131  46.9916121  61.3380835  34.1165025  46.4857314  59.7411993
  33.3611060  48.0845322  59.9420813  32.0101721  44.9782866  60.3886839
  31.0851504  44.4844677  60.0910605  32.8566761  44.4750285  59.9214988
  32.1136855  44.9318469  61.4727638  30.7581721  48.5652866  60.0476839
  31.3551721  49.3742866  60.6996839  30.1561721  48.8792866  58.9376839
  29.8038970  48.1162528  58.3775224  30.0401721  50.2612866  58.3996839
  31.0244612  50.7293871  58.3871919  29.4861721  50.2562866  56.9826839
  28.6277544  49.5846774  56.9700663  29.1566390  51.2705491  56.7573407
  30.5371721  49.7892866  55.8946839  31.2998865  50.5679617  55.8889531
  30.9623465  48.8678843  56.2926119  29.9631721  49.4962866  54.1806839
  29.6031721  51.2362866  53.8196839  30.5143633  51.8254428  53.9232444
  29.2268646  51.3261581  52.8006567  28.8515601  51.6047712  54.5178241
  29.1871721  51.1202866  59.3516839  29.6151721  52.2542866  59.6396839
  28.0031721  50.6442866  59.8546839  27.7570339  49.7566723  59.4403698
  27.0231721  51.2882866  60.7926839  26.6800009  52.2438419  60.3961404
  25.7881721  50.3402866  60.9516839  25.3794142  50.1881736  59.9527455
  26.1450408  49.3890014  61.3464006  24.7221721  50.8832866  61.8486839
  23.8661721  51.9052866  61.3846839  23.8721964  52.2242921  60.3424274
  22.9831721  52.5212866  62.3106839  22.5487998  53.4803436  62.0284921
  22.9071721  52.0802866  63.6426839  21.9531721  52.6282866  64.4086839
  21.4213069  53.2754596  63.9397637  23.5741721  50.9222866  64.0466839
  23.3429105  50.4358631  64.9943182  24.5401721  50.3962866  63.2216839
  25.1911223  49.6002260  63.5831412  27.6551721  51.6842866  62.1366839
  27.7441721  52.8492866  62.5306839  28.2721721  50.6882866  62.7556839
  28.1123384  49.7656972  62.3770267  28.9861721  50.8032866  64.0596839
  28.3810679  51.3574725  64.7771977  29.2321721  49.3602866  64.6206839
  29.6425849  48.7811124  63.7935093  30.1821721  49.2542866  65.8496839
  29.7721601  49.8328726  66.6774697  30.2758633  48.2101425  66.1481559
  31.1645124  49.6455335  65.5850425  27.9071721  48.7502866  65.0736839
  27.2230617  48.6963068  64.2268184  28.0825389  47.7473735  65.4629285
  27.4690030  49.3712464  65.8550401  30.2181721  51.7452866  63.9236839
  30.5651721  52.4282866  64.8666839  30.8511721  51.7232866  62.7306839
  30.7733627  50.8994290  62.1516298  31.9171721  52.7472866  62.3856839
  32.5574803  53.0258394  63.2226505  32.8201721  52.2522866  61.1676839
  32.1828409  51.6830086  60.4910512  33.4571721  53.3782866  60.4216839
  34.0950655  53.9477883  61.0975985  34.0587615  52.9794020  59.6049330
  32.6832929  54.0306984  60.0172472  33.8271721  51.2242866  61.6236839
  34.6010398  51.7792572  62.1540019  33.2982693  50.5789825  62.3250710
  34.4721721  50.3682866  60.5296839  35.0016873  51.0129031  59.8281263
  35.1756139  49.6692420  60.9820173  33.6989158  49.8126298  59.9991935
  31.4171721  54.1932866  62.3076839  32.1061721  55.1292866  62.7576839
  30.3271721  54.3692866  61.5636839  29.7747190  53.6054343  61.2011588
  29.9231721  55.7442866  61.2266839  30.7029289  56.4741198  61.0089177
  29.0071721  55.6202866  59.9946839  28.4295968  54.7066404  60.1352418
  28.0301721  56.8232866  59.7446839  28.6070757  57.7372718  59.6035655
  27.4344414  56.6289177  58.8528173  27.3696427  56.9401769  60.6038342
  29.7311721  55.3082866  58.6746839  30.2611094  54.3601339  58.7656504
  29.0022573  55.2405011  57.8671024  30.4441573  56.1027203  58.4541660
  29.2121721  56.3712866  62.4196839  29.1741721  57.6452866  62.5126839
  28.6451721  55.5582866  63.2876839  28.7307745  54.5583261  63.1743237
  27.8081721  56.0772866  64.4216839  27.5119733  57.1086554  64.2302580
  26.5241721  55.2092866  64.5636839  26.1405178  55.0021266  63.5646877
  26.7979899  54.2723261  65.0486879  25.4651721  55.9002866  65.3726839
  25.9347981  56.3013772  66.2708369  25.0654249  56.7197899  64.7754246
  24.3001721  54.9342866  65.7796839  23.7611811  54.6097533  64.8895908
  24.7051049  54.0639740  66.2960993  23.3421721  55.6302866  66.6926839
  23.8066847  56.1494718  67.4239665  22.0271721  55.8162866  66.5126839
  21.3151721  55.2682866  65.5676839  21.7558252  54.6499901  64.9016251
  20.3263617  55.4646873  65.5061997  21.3321721  56.3852866  67.4526839
  21.7871277  56.6801154  68.3048526  20.3405839  56.5298005  67.3263225
  28.4991721  56.1432866  65.7956839  28.3251721  57.0922866  66.5726839
  29.4571721  55.2652866  66.0006839  29.5329074  54.5333684  65.3088319
  30.2361721  55.1362866  67.2386839  29.9621054  55.9316601  67.9317696
  29.9591721  53.7822866  67.9106839  30.3722652  53.1681677  67.1104893
  30.4293603  53.5109377  68.8558785  28.4101721  53.5412866  68.0086839
  27.6241721  54.3972866  68.8026839  28.0562565  55.2790431  69.2758731
  26.2801721  54.1042866  68.9786839  25.6723820  54.8684262  69.4632286
  25.6731721  52.9662866  68.4396839  24.3781721  52.7102866  68.6666839
  23.9549807  53.3748334  69.2152150  26.4971721  52.0182866  67.7876839
  26.0690222  51.0762996  67.4449763  27.8651721  52.2872866  67.5806839
  28.4998600  51.5439730  67.0982358  31.6701721  55.4902866  67.0686839
  32.0651721  56.5112866  67.5246839  32.5211721  54.6682866  66.4136839
  32.2008344  53.8117925  65.9848472  33.9881721  54.9452866  66.4316839
  34.2127546  55.0367924  67.4943638  34.9531721  53.8552866  65.8016839
  35.9932118  54.1105163  66.0048480  34.6071721  52.4312866  66.4776839
  33.5673527  52.1751473  66.2745392  35.2582207  51.6628591  66.0608456
  34.7619173  52.4927034  67.5548944  34.7681721  53.6482866  64.3816839
  35.3831089  52.9787755  64.0731260  34.3261721  56.2932866  65.7996839
  35.2831721  56.9512866  66.1626839  33.7051721  56.5692866  64.6656839
  33.0790097  55.8221074  64.4015946  33.8641721  57.7092866  63.7406839
  33.0701378  57.6866946  62.9942937  33.7911721  59.0372866  64.4906839
  34.6604376  59.0885343  65.1463137  33.8491246  59.8334038  63.7484313
  32.5341721  59.2032866  65.3086839  31.6888040  59.2365943  64.6214109
  32.4395219  58.3331871  65.9583532  32.5501721  60.4892866  66.1686839
  33.1379590  60.2886789  67.0644306  33.0305339  61.2770902  65.5884101
  31.1441721  60.9382866  66.5716839  31.2512668  61.9109533  67.0518411
  30.5742461  61.0498059  65.6492702  30.4201721  59.9992866  67.4976839
  30.9478992  59.8961493  68.3526497  29.5061405  60.3733003  67.7092492
  30.3204539  59.0980565  67.0527799  35.1681721  57.6562866  62.8766839
  35.6091721  58.6572866  62.3246839  35.9341721  56.5612866  62.8656839
  35.5830124  55.8444656  63.4845165  37.2511721  56.3822866  62.2826839
  37.5393514  55.3417229  62.4319455  37.3441721  56.7142866  60.7486839
  37.0400655  57.7458837  60.5714106  38.3662627  56.5719278  60.3977355
  36.4271721  55.7882866  60.0056839  36.6812779  54.7661866  60.2864732
  35.4052149  56.0063239  60.3157891  36.5581721  55.9672866  58.1356839
  34.7501721  56.1052866  57.8646839  34.3663062  56.9707331  58.4048213
  34.5498849  56.2240732  56.7998480  34.2578953  55.2032121  58.2280382
  38.3381721  57.0692866  63.1696839  39.3791721  57.4132866  62.6516839
  38.0791721  57.3562866  64.4156839  37.2325456  57.0269002  64.8570765
  38.9801721  58.2422866  65.1946839  39.3549683  59.0499705  64.5659759
  38.2141721  58.8442866  66.3476839  37.3203472  58.2590359  66.5636882
  38.8384232  58.8958591  67.2397326  37.7941721  60.3072866  65.9126839
  38.7145263  60.8827379  65.8131607  37.3134501  60.2203847  64.9382833
  36.8421721  61.0252866  66.8936839  36.0128384  60.3301113  67.0242052
  37.4094294  61.0917391  67.8220710  36.2701721  62.4732866  66.5126839
  35.7847731  62.4707758  65.5367320  35.5717504  62.8411907  67.2643173
  37.4991721  63.3852866  66.4686839  38.1462789  63.0447989  65.7719625
  37.2130792  64.3245625  66.2320160  37.9488559  63.3880893  67.3730487
  40.2191721  57.4182866  65.6566839  41.3751721  57.8692866  65.5986839
  40.0171721  56.2082866  66.1356839  39.1062494  56.0789199  66.5523173
  41.0031721  55.1322866  66.2726839  41.9485044  55.5934065  66.5587163
  40.7051721  53.9662866  67.2496839  39.6953072  53.6380377  67.0036643
  41.6621721  52.7482866  67.2326839  42.6722154  53.0756992  67.4790844
  41.3296519  52.0140249  67.9664340  41.6589933  52.2968821  66.2405527
  40.7191721  54.6172866  68.5146839  40.5422284  53.9758175  69.2066439
  41.3931721  54.5782866  64.9206839  40.5461721  53.9442866  64.2416839
  42.6661721  54.8382866  64.4986839  43.3019228  55.2692572  65.1545686
  43.1121721  54.6582866  63.1156839  42.5100155  55.3315592  62.5055932
  44.5881721  55.1292866  63.0636839  45.2051573  54.4594750  63.6626679
  44.9374812  55.1181865  62.0312304  44.6611819  56.1418452  63.4605390
  42.8981721  53.2292866  62.5206839  42.8651721  53.0882866  61.3116839
  42.6721721  52.1582866  63.3146839  42.6874482  52.2872389  64.3163012
  42.4491721  50.7712866  62.7776839  43.2792438  50.5712436  62.1001420
  42.4871721  49.7462866  63.9136839  41.5273610  49.7939468  64.4280683
  42.7511721  48.2502866  63.4166839  43.7110856  48.2017375  62.9025743
  42.7650088  47.5787812  64.2751640  41.9577140  47.9486881  62.7328981
  43.5681721  50.0682866  64.6886839  43.6339184  49.4490374  65.4193056
  41.1221721  50.5892866  62.0086839  40.9521721  49.8452866  61.0546839
  40.2301721  51.4892866  62.2956839  40.5435138  52.1023847  63.0346204
  38.9101721  51.6882866  61.7576839  38.4027122  50.7266967  61.6806874
  38.0801721  52.6072866  62.6466839  38.5755417  53.5455553  62.8964043
  37.1429796  52.8177350  62.1314348  37.7721721  51.8702866  63.9246839
  36.8691721  50.9922866  63.9906839  38.5391721  52.1402866  64.9386839
  38.3830150  51.6783846  65.8231958  39.2877326  52.8107260  64.8373472
  38.9121721  52.2932866  60.2826839  37.9941721  52.1532866  59.5646839
  40.0811721  52.6932866  59.8066839  40.8495750  52.6464743  60.4604920
  40.3331721  53.2912866  58.4556839  39.4278028  53.7977042  58.1210995
  41.5301721  54.3092866  58.4626839  42.4084246  53.7833684  58.8370942
  41.8411721  54.9022866  57.0506839  40.9634752  55.4287893  56.6757923
  42.6774235  55.5975449  57.1241706  42.0998471  54.0947318  56.3658178
  41.1361721  55.4822866  59.4666839  40.3417330  56.0489064  58.9809791
  40.7432754  55.0013355  60.3624616  42.2321721  56.3942866  59.8396839
  42.6252962  56.8759927  58.9444115  41.8561199  57.1539051  60.5250041
  43.0268401  55.8284208  60.3258923  40.5301721  52.0542866  57.4966839
  39.9231721  52.0322866  56.3916839  41.3221721  51.0572866  57.9126839
  41.8709392  51.1434901  58.7562021  41.3991721  49.7692866  57.1406839
  41.6578826  49.9821359  56.1034456  42.4801721  48.8192866  57.7386839
  42.1705863  48.3377788  58.6662646  42.5096340  48.0798925  56.9383538
  43.8561721  49.4222866  57.9186839  44.7781721  49.3412866  56.8076839
  44.5364688  48.7007755  55.9594950  45.9751721  50.0772866  56.8136839
  46.6290787  50.1071126  55.9421229  46.3791721  50.7382866  58.0536839
  47.6381721  51.3712866  58.0486839  48.0947899  51.2915112  57.2080081
  45.5081721  50.8062866  59.1586839  45.7835248  51.2839465  60.0989617
  44.2191721  50.2162866  59.0096839  43.4556546  50.3753709  59.7711517
  40.0971721  49.0252866  57.1796839  39.5631721  48.6452866  56.1166839
  39.5531721  48.7612866  58.4066839  40.0623567  49.0770664  59.2197728
  38.3161721  48.0292866  58.6106839  38.4819350  47.0102520  58.2611265
  37.9471721  48.0052866  60.1466839  37.9187858  49.0323263  60.5106677
  36.5781721  47.3352866  60.3906839  36.6059316  46.3079984  60.0273535
  36.3574511  47.3367634  61.4581017  35.8030289  47.8872981  59.8591432
  38.9731721  47.1572866  61.0166839  38.8419957  46.0989904  60.7910678
  39.9895023  47.4589900  60.7634103  38.7281721  47.3942866  62.5056839
  37.7121234  47.0923623  62.7598228  39.4376885  46.8074949  63.0890887
  38.8596280  48.4523630  62.7321648  37.1501721  48.6422866  57.8176839
  36.4181721  47.9062866  57.1706839  37.0371721  49.9812866  57.7276839
  37.5330721  50.6108629  58.3423516  36.0411721  50.5412866  56.8216839
  35.0830465  50.0415856  56.9644890  35.8591721  52.0442866  57.1036839
  35.7865528  52.2275517  58.1757098  36.7417556  52.5473159  56.7085789
  34.6321721  52.7272866  56.4536839  33.3421721  52.6652866  57.0176839
  33.1974138  52.1835370  57.9846701  32.2451721  53.2212866  56.3386839
  31.2306893  52.9417885  56.6229479  32.4531721  54.1292866  55.3026839
  31.6135617  54.6901493  54.8920902  33.7621721  54.3242866  54.7806839
  33.9524779  55.0954661  54.0342483  34.8051721  53.5192866  55.2316839
  35.7428106  53.4806930  54.6772071  36.2581721  50.2892866  55.3766839
  35.2951721  49.8322866  54.8056839  37.4981721  50.4742866  54.8316839
  38.1472784  51.0334757  55.3665372  37.8391721  50.1432866  53.4876839
  37.1346503  50.6070188  52.7972488  39.2781721  50.6652866  53.1596839
  39.9861121  50.5113676  53.9740728  39.6639660  50.2026261  52.2512741
  39.1291721  52.1822866  52.9156839  38.5301721  52.6252866  51.9546839
  39.6621721  52.9072866  53.8156839  39.6159008  53.9135522  53.7422779
  40.1288725  52.4729001  54.5990101  37.5461721  48.6822866  53.1466839
  37.0591721  48.4362866  52.0786839  37.8721721  47.7752866  54.0786839
  38.4605570  48.0921772  54.8359704  37.5651721  46.2902866  53.9776839
  37.8638849  45.9258595  52.9947990  38.3401721  45.4652866  55.0786839
  38.0685816  45.7411612  56.0976201  37.9163340  44.4894006  54.8418134
  39.8891721  45.4012866  54.9546839  40.3468878  46.3274893  55.3021691
  40.3521721  44.2322866  55.8486839  39.8952009  43.3056024  55.5015061
  41.4373171  44.1429882  55.7978217  40.0515802  44.4211753  56.8792498
  40.2131721  44.8932866  53.5516839  39.7988967  45.5783514  52.8119802
  41.2943868  44.8347653  53.4265782  39.7778523  43.9035863  53.4135218
  36.1581721  45.9882866  53.9606839  35.7771721  45.1132866  53.1896839
  35.2181721  46.5262866  54.7956839  35.5454633  47.1050850  55.5559288
  33.7631721  46.3572866  54.6216839  33.4651549  45.3099568  54.5728465
  33.1741721  46.9662866  55.8606839  33.4563011  48.0175322  55.9188728
  32.0878780  46.8835657  55.8257190  33.5500003  46.4406449  56.7384955
  33.1621721  47.1042866  53.3956839  32.2691721  46.4862866  52.8336839
  33.6971721  48.2582866  53.0256839  34.3772516  48.6391784  53.6679555
  33.3281721  49.0372866  51.8936839  32.2433197  49.1411448  51.8734888
  33.9701721  50.4732866  51.9266839  33.6128118  50.9399048  52.8446492
  35.0582301  50.4126734  51.9502625  33.5251721  51.3262866  50.7046839
  33.8154509  50.7734495  49.8112578  32.0301721  51.6312866  50.6506839
  31.7392158  52.1845528  51.5436228  31.8126558  52.2298213  49.7660689
  31.4697935  50.6975448  50.6037536  34.3721721  52.5882866  50.8106839
  35.4282783  52.3226668  50.7639354  34.1299997  53.2593098  49.9865591
  34.1650628  53.0870290  51.7575000  33.6431721  48.3332866  50.6156839
  32.7211721  48.2022866  49.7836839  34.8671721  47.8432866  50.4736839
  35.5855371  48.1062163  51.1331679  35.2301721  47.0882866  49.3776839
  34.8905064  47.6866445  48.5322880  36.7691721  46.9872866  49.3236839
  37.1236999  46.3833262  50.1589335  37.0705360  46.5214518  48.3854526
  37.2018211  47.9856436  49.3884721  34.6101721  45.7302866  49.2426839
  34.1941721  45.3752866  48.1416839  34.3561721  44.9912866  50.3696839
  34.6616822  45.3673889  51.2558611  33.7301721  43.6162866  50.3526839
  34.1650815  43.0539293  49.5264229  33.9511721  42.8062866  51.6836839
  33.6713045  43.4074348  52.5487817  33.2869886  41.9451590  51.6100670
  35.3801721  42.3292866  51.8416839  36.2101721  42.3812866  50.8766839
  35.8441721  41.9092866  52.9646839  32.2321721  43.6622866  50.0456839
  31.7651721  42.8952866  49.2346839  31.3721721  44.5202866  50.6976839
  31.8007970  45.0743486  51.4252796  29.9471721  44.6672866  50.4706839
  29.3659590  43.7694154  50.6807260  29.4671721  45.7952866  51.4066839
  30.0337233  46.7037094  51.2020186  28.4069888  45.9828200  51.2365578
  29.6211024  45.4976323  52.4438949  29.7261721  44.9782866  48.9986839
  28.8871721  44.3562866  48.3616839  30.5321721  45.9012866  48.4326839
  31.2988401  46.3606291  48.9031348  30.2321721  46.2882866  47.0686839
  29.1536627  46.1994821  46.9381837  30.6451721  47.6632866  46.6856839
  31.7223168  47.7894497  46.7949611  30.3696810  47.7878437  45.6384541
  29.9111721  48.7262866  47.5426839  30.1319750  48.5125143  48.5884603
  30.3301721  50.1812866  47.2136839  30.1092345  50.3959625  46.1681220
  29.7774219  50.8719370  47.8505278  31.3990347  50.3009663  47.3906301
  28.4021721  48.7682866  47.3486839  27.9743323  47.8011403  47.6126545
  27.9745262  49.5408026  47.9877765  28.1754302  48.9930380  46.3064872
  30.9091721  45.2882866  46.1056839  30.4041721  45.1852866  44.9926839
  31.9911721  44.5592866  46.4706839  32.6176603  44.8336969  47.2138601
  32.3301721  43.3202866  45.6656839  32.4707652  43.6492779  44.6360735
  33.6811721  42.7002866  46.1846839  33.5535783  42.3579127  47.2116211
  33.9608055  41.8570083  45.5531880  34.4657541  43.4561048  46.1490562
  31.2281721  42.2502866  45.6656839  30.9531721  41.5812866  44.6216839
  30.5181721  42.0112866  46.7516839  30.8790745  42.4769366  47.5720612
  29.3971721  41.0392866  46.9246839  29.6157276  40.0797881  46.4559672
  29.2851721  40.8242866  48.4886839  28.9615754  41.7834416  48.8929203
  28.3661721  39.7492866  48.9636839  28.6894269  38.7896984  48.5602036
  28.3847163  39.7097120  50.0528070  27.3519920  39.9619318  48.6255698
  30.5741721  40.4752866  48.9806839  30.5284918  40.3400454  49.9300118
  28.0941721  41.4342866  46.1936839  27.4071721  40.5472866  45.7116839
  27.9061721  42.7122866  45.8776839  28.5445556  43.3781863  46.2889546
  26.8041721  43.2242866  45.0426839  25.8334713  42.9443984  45.4519536
  26.9091721  44.7492866  45.0336839  25.9139913  45.0620617  44.7176364
  27.0482902  44.9920454  46.0871612  27.8741721  45.4192866  44.2686839
  27.7809811  46.3664599  44.3942946  26.7941721  42.6742866  43.6546839
  25.7341721  42.5672866  43.0486839  27.9501721  42.3332866  43.1656839
  28.7731002  42.3958190  43.7479024  28.1171721  41.8662866  41.7326839
  27.6489034  42.6346136  41.1174626  29.6271721  41.7582866  41.3346839
  29.7221673  41.5056925  40.2786193  30.2661721  43.0862866  41.5886839
  30.1719776  43.3393638  42.6447042  31.3213759  43.0397759  41.3194612
  29.7715710  43.8490366  40.9872833  30.3071721  40.8812866  42.1176839
  31.2250011  40.8479289  41.8382604  27.4741721  40.5012866  41.4676839
  27.1331721  40.1462866  40.3556839  27.3501721  39.7532866  42.5286839
  27.5315942  40.1825607  43.4247359  27.1001721  38.2682866  42.4856839
  27.6713700  37.8234702  41.6708400  27.5471721  37.5762866  43.8626839
  28.5312694  38.0015842  44.0595947  26.8321901  37.9651279  44.5877378
  27.6171721  36.0522866  43.9826839  26.5997613  35.6709240  44.0695085
  28.2871721  35.4232866  42.7966839  29.3048526  35.8038380  42.7094722
  28.3142243  34.3412655  42.9255222  27.7298756  35.6671493  41.8922217
  28.3971721  35.5682866  45.2046839  27.9226663  35.9437069  46.1113279
  28.4043635  34.4784726  45.2235229  29.4215536  35.9370136  45.1519398
  25.6411721  37.9272866  42.0956839  25.5111721  36.9932866  41.3176839
  24.6011721  38.6842866  42.4306839  24.5361721  39.5782866  43.5836839
  24.8532451  40.5684744  43.2564330  25.2314686  39.2046973  44.3354105
  23.0741721  39.5562866  44.0726839  22.7851145  40.4529393  44.6209162
  22.8276634  38.6743199  44.6638434  22.4001721  39.4992866  42.6986839
  22.3818914  40.4770428  42.2172717  21.3842985  39.1105286  42.7691652
  23.2631721  38.5472866  41.8976839  22.9244752  37.5307300  42.0976719
  23.1981721  38.8252866  40.3556839  22.3131721  38.2502866  39.7006839
  23.9881721  39.7992866  39.7886839  24.4159956  40.5193614  40.3530939
  24.0901721  39.9042866  38.3536839  23.0918204  39.7829705  37.9333562
  24.6601721  41.2242866  37.8746839  25.7194011  41.3360456  38.1062940
  24.5338488  41.1152780  36.7975304  23.9991721  42.5152866  38.2556839
  23.1031721  43.1752866  37.4196839  23.0180983  42.8728052  36.3759563
  22.3301721  44.2002866  37.9016839  21.6162386  44.6377379  37.2038043
  22.4181721  44.6822866  39.1906839  21.7540287  45.4699461  39.5465013
  23.3891721  44.1372866  40.0526839  23.5886873  44.5244649  41.0518770
  24.1311721  43.0202866  39.5576839  24.8467546  42.5118441  40.2038478
  24.8831721  38.6542866  37.7576839  24.4341721  38.0232866  36.7896839
  26.0251721  38.2382866  38.3386839  26.4783980  38.7838653  39.0577316
  26.6771721  37.0182866  37.8836839  26.8349905  37.0421818  36.8054346
  28.0221721  36.9122866  38.5666839  27.8106248  36.7912596  39.6290866
  28.4830103  36.0022534  38.1825384  28.9761721  38.0882866  38.3686839
  28.7167694  38.6538483  37.4737252  28.8348538  38.7162316  39.2483522
  30.4841721  37.6802866  38.2826839  30.8631721  36.5792866  37.9266839
  31.4161721  38.6032866  38.5406839  32.3943181  38.3568429  38.4897184
  31.1379100  39.5428554  38.7853920  25.8431721  35.7192866  38.1226839
  26.1641721  34.6382866  37.5376839  24.7451721  35.8272866  38.9226839
  24.6642880  36.7212350  39.3857319  23.8091721  34.7512866  39.3086839
  24.3224344  33.8043204  39.1416030  23.3001721  34.7902866  40.7896839
  22.8732944  35.7844057  40.9223562  22.5067333  34.0447677  40.8421855
  24.2561721  34.5412866  41.8216839  23.8240635  34.5929005  42.6773813
  22.6761721  34.6782866  38.2766839  22.4471721  33.5492866  37.7056839
  22.0081721  35.8472866  37.9826839  22.0246455  36.6811831  38.5522843
  21.1671721  35.8382866  36.8006839  20.3285978  35.1570299  36.9448417
  20.6171721  37.2442866  36.5466839  21.4416861  37.9572157  36.5438293
  19.8891721  37.2902866  35.1766839  19.0641843  36.5779026  35.1789397
  19.5011712  38.2942087  35.0043578  20.5901769  37.0310972  34.3832642
  19.5931721  37.7252866  37.6126839  20.0682756  37.7386610  38.5936018
  19.2510075  38.7292579  37.3615570  18.7411661  37.0457028  37.6314553
  21.9611721  35.3042866  35.5496839  21.4141721  34.3922866  34.9756839
  23.2091721  35.7912866  35.3106839  23.6321005  36.4704372  35.9271135
  23.9141721  35.4472866  34.0576839  23.2887285  35.6250894  33.1828664
  25.1811721  36.3912866  33.9736839  25.0434024  37.4330428  34.2632747
  25.9163901  35.9263259  34.6304687  25.7151721  36.3482866  32.5276839
  24.9891721  36.4312866  31.5916839  27.0231721  36.3672866  32.3706839
  27.4176010  36.3406197  31.4412677  27.6253741  36.4084319  33.1804744
  24.2271721  33.9492866  33.9436839  24.3501721  33.4532866  32.8126839
  24.2401721  33.1782866  35.0896839  24.2164963  33.6852150  35.9629321
  24.2621721  31.6892866  35.1376839  24.9184505  31.2804739  34.3693936
  24.8011721  31.2732866  36.5166839  25.8490651  31.5723048  36.5413360
  24.2460521  31.8341293  37.2686129  24.6921721  29.7892866  36.8106839
  25.3771721  28.9332866  35.9126839  25.9063092  29.3336692  35.0479254
  25.3671721  27.5502866  36.1506839  26.0029258  26.8765485  35.5762311
  24.6731721  27.0752866  37.2616839  24.5721721  25.7152866  37.4296839
  25.0089584  25.2179754  36.7343431  23.9171721  27.9092866  38.1186839
  23.3156364  27.5253772  38.9426188  23.9651721  29.2692866  37.8726839
  23.4242560  29.9596330  38.5199332  22.7891721  31.1292866  34.9586839
  22.5371721  30.2262866  34.1446839  21.8521721  31.6012866  35.7826839
  22.0840578  32.4189135  36.3284079  20.5401721  30.9822866  35.9826839
  20.6519718  29.9261160  36.2278445  19.8141721  31.6882866  37.1546839
  20.4051693  31.3407303  38.0020481  19.9563259  32.7616544  37.0290893
  18.3571721  31.4012866  37.4076839  17.7797332  31.5991371  36.5046223
  18.2071721  29.9692866  37.7886839  18.7839989  29.7707678  38.6919889
  17.1556299  29.7503752  37.9742572  18.5719562  29.3372265  36.9790339
  17.7811721  32.3072866  38.4206839  17.8695604  33.3385078  38.0788217
  16.7293881  32.0636695  38.5706913  18.3186176  32.1896682  39.3616501
  19.7141721  31.0582866  34.6906839  18.9941721  30.1182866  34.3806839
  19.7601721  32.1642866  33.8926839  20.1324003  33.0011081  34.3184483
  19.2211721  32.2562866  32.4906839  18.4011910  31.5587326  32.3199547
  18.6861721  33.6882866  32.3426839  19.5289402  34.3746990  32.4244113
  18.2369850  33.7813828  31.3539149  17.6731721  34.0212866  33.3806839
  18.1317703  33.8111115  34.3469214  17.4765970  35.0901600  33.2971980
  16.0981721  33.1102866  33.2536839  15.4671721  33.6802866  31.6196839
  16.1813241  33.4134629  30.8406518  14.5093823  33.2028434  31.4128329
  15.3368885  34.7623299  31.6372833  20.1311721  31.9142866  31.3416839
  19.6321721  31.6832866  30.2866839  21.4441721  31.9532866  31.4896839
  21.8206125  32.1172831  32.4124499  22.3861721  31.7692866  30.3746839
  23.3575939  31.5361224  30.8106580  22.0343470  30.9158342  29.7950828
  22.5371721  32.9992866  29.4266839  22.9291721  32.8612866  28.2496839
  22.1791721  34.2122866  29.7286839  21.8377170  34.2569015  30.6781665
  22.1901721  35.4322866  28.9436839  23.0105306  35.3471178  28.2310427
  20.8591721  35.5812866  28.1536839  20.7532930  34.7027454  27.5172444
  19.6161721  35.7072866  29.0706839  19.7211207  36.5859281  29.7071386
  18.7205335  35.8081947  28.4577009  19.5313853  34.8164821  29.6930818
  20.8171721  36.7772866  27.3766839  19.9803798  36.8255881  26.9086605
  22.3671721  36.6112866  29.8906839  21.9101721  36.6372866  31.0406839
  23.0031721  37.6442866  29.4186839  23.4221610  37.4634085  28.5176674
  23.1631721  38.9992866  30.0116839  23.0579574  38.9849316  31.0964986
  24.5701721  39.4422866  29.6676839  25.2958337  38.7816148  30.1420543
  24.7529845  39.4703828  28.5934911  24.8491721  40.8492866  30.1956839
  24.7131721  41.9952866  29.5136839  24.4019859  41.9748366  28.4692488
  25.0331721  43.0302866  30.3896839  25.0203135  43.9825468  30.0533288
  25.4021721  42.6452866  31.6136839  25.8451721  43.2842866  32.8066839
  25.7739002  44.3716017  32.8343423  26.3401721  42.5022866  33.8636839
  26.6436825  42.9861667  34.7920381  26.4581721  41.0612866  33.7506839
  26.9328782  40.3920690  34.4682502  25.8961721  40.4952866  32.5906839
  26.1008216  39.4248206  32.5727457  25.3431721  41.1742866  31.5206839
  22.1401721  39.9682866  29.4006839  22.3141721  40.3932866  28.2586839
  21.0981721  40.2982866  30.1266839  20.6021721  39.6732866  31.3756839
  21.3951910  39.7927334  32.1138938  20.4674190  38.6141717  31.1561021
  19.3371721  40.3312866  31.7866839  19.5113877  41.1889067  32.4364806
  18.6536728  39.6378091  32.2766012  18.7971721  40.7602866  30.4366839
  18.1337384  41.6179570  30.5478425  18.2779447  39.9673073  29.8984587
  20.0891721  41.1832866  29.6516839  19.9024959  40.9848754  28.5962772
  20.5441721  42.6212866  29.8226839  20.0291721  43.4162866  29.0616839
  21.3691721  42.9322866  30.8336839  21.9365268  42.2181943  31.2675966
  21.4291721  44.2932866  31.3766839  20.4335666  44.6603704  31.6259193
  22.2481721  44.2532866  32.6226839  23.3143444  44.0965875  32.4589114
  22.0944996  45.2102696  33.1213505  21.7801721  43.1422866  33.6286839
  20.6581721  43.4272866  34.3306839  20.1501595  44.3878049  34.2444993
  20.1551721  42.4472866  35.1836839  19.2861620  42.6491820  35.8099110
  20.8001721  41.1462866  35.2336839  20.3713691  40.3620679  35.8575660
  21.9381721  40.8992866  34.5056839  22.4492260  39.9381389  34.5615329
  22.4491721  41.9302866  33.6646839  23.3456528  41.7543922  33.0701391
  21.9971721  45.3712866  30.4306839  21.9241721  46.5602866  30.7436839
  22.6991721  44.9782866  29.3446839  22.8887271  43.9923505  29.2346920
  23.2011721  45.9042866  28.3166839  23.0010471  45.4676299  27.3382259
  22.6589586  46.8450487  28.4119230  24.7231721  46.1832866  28.4436839
  25.3241721  45.8282866  29.4616839  25.3921721  46.7442866  27.4186839
  24.8424312  46.9577993  26.5987469  26.9031721  46.9592866  27.3536839
  27.3674591  45.9846118  27.5038362  27.3571721  47.5122866  26.0116839
  26.7788610  48.4257656  25.8730742  28.9051721  47.8292866  25.8136839
  29.4841270  46.9161248  25.9516923  29.0716908  48.2159901  24.8082829
  29.2207605  48.5730288  26.5453615  27.0431721  46.4732866  25.0376839
  27.3083478  46.7646766  24.1622560  27.5371721  47.8262866  28.4676839
  28.6611721  47.5262866  28.9986839  26.9071721  48.9002866  28.9276839
  25.9777171  49.1001822  28.5867228  27.5231721  49.8482866  29.8816839
  28.5566208  50.1104817  29.6551077  26.7111721  51.1152866  30.0756839
  25.6794078  50.8186387  30.2642650  27.2331721  52.0222866  31.2826839
  28.2647951  52.3197297  31.0945818  26.6085829  52.9116928  31.3660252
  27.1828178  51.4551821  32.2121763  26.5181721  51.9462866  28.7796839
  25.7714045  51.3936898  28.2095299  26.0898820  52.8887975  29.1207710
  27.7381721  52.2312866  27.8856839  28.1667523  51.2891926  27.5438100
  27.4277697  52.8224922  27.0241588  28.4852311  52.7842987  28.4550524
  27.7341721  49.2082866  31.2356839  28.7841721  49.2462866  31.8276839
  26.7501721  48.5432866  31.8476839  25.8794259  48.5670323  31.3364731
  26.7801721  47.8502866  33.1296839  27.2916368  48.4457861  33.8859137
  25.3251721  47.6282866  33.5796839  24.8002245  48.5547719  33.3469733
  24.9240174  46.8204266  32.9676896  25.1321721  47.2912866  35.0576839
  25.8211971  46.5026804  35.3600836  25.4231721  48.5672866  35.8716839
  24.7341888  49.3562585  35.5701474  25.2936513  48.3588217  36.9336950
  26.4477701  48.8904744  35.6877028  23.7191721  46.7952866  35.3956839
  23.5047513  45.8913997  34.8254983  23.6559320  46.5755241  36.4614261
  22.9921666  47.5662716  35.1404503  27.5151721  46.4842866  33.1486839
  27.9051721  45.9972866  34.1906839  27.7811721  45.9202866  31.9706839
  27.3502642  46.2771462  31.1298100  28.6781721  44.7432866  31.8566839
  28.3990873  43.9511414  32.5514622  28.5161721  44.2162866  30.4186839
  27.6138862  43.6113889  30.3288053  28.4719905  45.0415621  29.7080022
  29.8821721  43.1622866  29.8786839  29.4007155  42.9231075  28.6621761
  30.1681721  45.0812866  32.1536839  30.7771721  44.5212866  33.0526839
  30.6801721  46.0912866  31.4116839  30.0738679  46.4656820  30.6959168
  31.9871721  46.7072866  31.6016839  32.7717964  45.9891977  31.3633308
  32.1461721  47.9392866  30.6766839  31.2707605  48.5800429  30.7824438
  33.0383506  48.4926197  30.9698392  32.2821721  47.4822866  29.1806839
  33.3233970  47.2196957  28.9936075  31.6538682  46.6044702  29.0297714
  31.8501721  48.5972866  28.2056839  32.0781473  48.2418369  27.2008049
  30.7714817  48.7096640  28.3147601  32.5271721  49.9452866  28.4336839
  31.8892243  50.6884218  27.9552770  32.5253795  50.1056554  29.5118202
  33.9121721  50.0762866  27.9166839  33.9139897  49.9281461  26.9176089
  34.2614412  51.0018077  28.1204530  34.5035636  49.3880498  28.3601760
  32.2821721  47.2862866  32.9996839  33.3971721  47.2482866  33.4306839
  31.2021721  47.7912866  33.6396839  30.3585533  47.9711839  33.1142854
  31.2891721  48.3012866  35.0066839  32.2817875  48.6828184  35.2459481
  30.2571721  49.4242866  35.1696839  29.3078420  49.0860202  34.7544147
  30.0621721  49.8032866  36.6726839  31.0110415  50.1421131  37.0885495
  29.3246846  50.6018014  36.7538445  29.7145459  48.9307520  37.2258009
  30.7341721  50.6562866  34.3226839  31.6449284  51.0357144  34.7859963
  30.9612065  50.2928684  33.3204454  29.6961721  51.7852866  34.2346839
  29.4689624  52.1495560  35.2365738  30.0967465  52.6018206  33.6339247
  28.7852391  51.4067090  33.7710247  31.2661721  47.1652866  36.0476839
  32.1351721  47.1072866  36.8496839  30.3991721  46.2042866  35.9416839
  29.7561869  46.2684407  35.1654406  30.2381721  45.1212866  36.8716839
  30.1436296  45.6342612  37.8287722  28.9681721  44.3172866  36.6226839
  28.9638080  44.0363312  35.5695247  28.8571721  43.0892866  37.4656839
  28.8610048  43.3694956  38.5190448  27.9277378  42.5701354  37.2317303
  29.7016576  42.4308048  37.2623425  27.7061721  45.0842866  37.0796839
  27.6311789  46.0221524  36.5293332  26.8215366  44.4778530  36.8853703
  27.7747067  45.2944351  38.1470365  31.4321721  44.2392866  36.8336839
  31.8351721  43.6762866  37.8746839  32.0981721  43.9812866  35.7006839
  31.6967215  44.2969610  34.8293135  33.3091721  43.1382866  35.6486839
  33.2651518  42.2657802  36.3005228  33.6011721  42.6812866  34.1896839
  33.4989274  43.5203135  33.5014396  35.0531721  42.1522866  34.1446839
  35.1560819  41.3128899  34.8323781  35.2893615  41.8233001  33.1327139
  35.7392445  42.9471732  34.4371891  32.6381721  41.7432866  33.6826839
  32.1751754  41.3731522  34.5974162  31.9378380  42.3941645  33.1592438
  33.0051721  40.5622866  32.7836839  33.7051693  39.9106707  33.3066566
  32.1045271  40.0013587  32.5340892  33.4678343  40.9316833  31.8684846
  34.5361721  43.8722866  36.3366839  35.2681721  43.2642866  37.0656839
  34.5931721  45.1992866  36.2436839  33.9030002  45.6982406  35.7007226
  35.6771721  45.9612866  36.8516839  36.6577556  45.5643029  36.5890829
  35.5481721  47.4362866  36.2566839  35.4714983  47.3862566  35.1705360
  34.6573492  47.9165135  36.6615502  36.7161721  48.2032866  36.6216839
  36.6403846  49.0911542  36.2645463  35.6571721  45.9562866  38.3666839
  36.7201721  45.9712866  38.9476839  34.4701721  45.8022866  39.0656839
  33.5947903  45.7948453  38.5619473  34.4301721  45.7862866  40.4886839
  35.1017180  46.4107406  41.0779059  32.9671721  46.1242866  40.8466839
  32.3201314  45.4454993  40.2910883  32.6711721  45.9822866  42.4066839
  33.3175564  46.6611536  42.9629461  31.6284174  46.2314719  42.6033307
  32.8648684  44.9570058  42.7219301  32.4651721  47.4582866  40.2336839
  32.8922796  48.2475544  40.8523409  32.8979899  47.5062497  39.2344503
  30.9581721  47.6452866  40.1426839  30.5246715  47.5979055  41.1416494
  30.7381599  48.6155289  39.6973484  30.5303814  46.8565988  39.5237602
  34.9821721  44.4502866  40.9776839  35.5841721  44.4542866  42.0636839
  34.9641721  43.4012866  40.1726839  34.3783230  43.4698511  39.3528187
  35.5711721  42.1042866  40.4866839  35.3346325  41.7969149  41.5053452
  34.9671721  41.0182866  39.4696839  34.0032679  41.4226222  39.1606521
  35.6158441  40.9212239  38.5991073  34.7601721  39.6312866  40.1136839
  35.0261721  39.4272866  41.3156839  34.3631721  38.7092866  39.3246839
  37.1331721  42.1222866  40.5796839  37.7681721  41.0792866  40.8006839
  37.7261721  43.2292866  40.2006839  37.0872465  43.9199137  39.8333863
  39.1441721  43.5292866  40.1876839  39.7067862  42.7142799  40.6430176
  39.6241721  43.7052866  38.7226839  38.8109731  44.3594984  38.4083378
  40.5766901  44.2147690  38.5769538  39.5991721  42.4402866  37.8986839
  40.7761721  41.6562866  37.7236839  41.6317962  41.8841411  38.3593641
  40.8591721  40.6392866  36.7916839  41.7912605  40.1002023  36.6222695
  39.7461721  40.4062866  35.9536839  39.8021721  39.3752866  35.0426839
  40.6329762  38.8950745  35.0702615  38.5181721  41.1122866  36.1176839
  37.6014733  40.9068443  35.5649117  38.5461721  42.1622866  37.0966839
  37.6752689  42.8033308  37.2333952  39.4601721  44.7762866  41.0336839
  40.3171721  44.6932866  41.8646839  38.8261721  45.9122866  40.7026839
  38.2186420  45.8716745  39.8968569  39.0101721  47.1702866  41.3476839
  40.0498027  47.4940494  41.2982365  38.1281721  48.2102866  40.5926839
  38.0891904  48.0265478  39.5189895  37.1845522  47.9081266  41.0469754
  38.3591721  49.6842866  40.8436839  39.5371721  50.1782866  41.4536839
  40.2604386  49.4674722  41.8533435  39.7841721  51.5692866  41.5496839
  40.6621857  51.8818694  42.1149148  38.8801721  52.5322866  41.0646839
  39.1631721  53.8882866  41.1596839  40.0093240  54.0665665  41.5766287
  37.7191721  52.0762866  40.3366839  37.0332356  52.7803414  39.8656228
  37.4781721  50.6712866  40.2406839  36.6064597  50.3035844  39.6993776
  38.7111721  47.1802866  42.8336839  39.5311721  47.6422866  43.6116839
  37.6791721  46.5012866  43.3366839  36.8907873  46.3481101  42.7242416
  37.5141721  46.1962866  44.8046839  37.9705100  46.9838993  45.4042849
  36.0201721  46.1132866  45.1576839  35.6599116  45.3055237  44.5206355
  35.9809903  45.7980295  46.2003621  35.1201721  47.3002866  44.9816839
  35.1911721  48.1792866  44.1216839  34.1571721  47.4032866  45.9046839
  33.5039144  48.1725499  45.8648324  34.0878313  46.7113094  46.6371183
  38.3761721  45.0722866  45.2736839  38.7371721  45.1372866  46.4306839
  38.6041721  44.0072866  44.4736839  38.1496280  43.9496130  43.5735935
  39.4251721  42.8582866  44.9206839  39.0662819  42.4874522  45.8807770
  39.3261721  41.7422866  43.9036839  38.2824217  41.5523490  43.6534680
  39.8736447  42.0074146  42.9992056  39.9251721  40.5132866  44.5056839
  40.9653575  40.7538123  44.7253716  39.3893713  40.3347420  45.4379614
  39.8641721  39.0592866  43.5156839  41.0331721  39.6142866  42.2516839
  41.9972232  39.8244767  42.7148520  41.1541023  38.8340450  41.5002189
  40.6535855  40.5192377  41.7772591  40.8581721  43.1312866  45.2126839
  41.2841721  42.7252866  46.3326839  41.5671721  43.7872866  44.3016839
  41.2475406  43.8740290  43.3475294  42.9181721  44.2082866  44.6146839
  43.5102995  43.3609259  44.9603198  43.5661721  44.7752866  43.3666839
  42.7553596  45.2775277  42.8390134  44.3736765  45.4841097  43.5500050
  44.1131721  43.7322866  42.4246839  45.4951721  43.7452866  42.1326839
  46.1621119  44.4387783  42.6448953  46.0091721  42.8542866  41.1726839
  47.0606106  42.8606594  40.8853910  45.1081721  41.9212866  40.5686839
  45.5431537  41.1615998  39.9192480  43.7061721  41.9532866  40.7826839
  42.9802163  41.3335099  40.2564093  43.2751721  42.8652866  41.7516839
  42.2191834  42.9212973  42.0159765  43.0421721  45.1112866  45.8476839
  44.0101721  44.9622866  46.6036839  42.1111721  46.0272866  45.9916839
  41.3849725  46.0763637  45.2914519  42.1061721  47.0062866  47.0526839
  43.0531428  47.5344536  47.1639737  40.9541721  48.0632866  46.9306839
  39.9733887  47.6036071  47.0525806  41.1941721  49.0412866  48.0546839
  42.1746417  49.5017443  47.9332024  40.4255505  49.8139023  48.0350640
  41.1559181  48.5155996  49.0087753  40.8991721  48.5882866  45.6436839
  40.1887953  49.2318384  45.5907109  42.0151721  46.3142866  48.4456839
  42.8051721  46.6172866  49.3146839  41.0651721  45.4082866  48.6306839
  40.4522939  45.2366517  47.8464511  40.8261721  44.7012866  49.8396839
  40.6464412  45.3600717  50.6892710  39.5331721  43.9002866  49.5526839
  38.8164548  44.6713307  49.2700065  39.7932112  43.3075734  48.6756601
  38.9551721  43.0552866  50.5416839  38.1639079  42.6429310  50.1874756
  42.0111721  43.8412866  50.1586839  42.4891721  43.8592866  51.3036839
  42.6071721  43.0742866  49.1976839  42.1876599  43.1026900  48.2793691
  43.6831721  42.1292866  49.4336839  43.4266545  41.7022254  50.4031769
  43.6681721  41.0322866  48.3756839  43.7368322  41.4940006  47.3906933
  44.8381721  40.0722866  48.5696839  44.7699362  39.6098033  49.5543431
  44.8051979  39.2987494  47.8024462  45.7763832  40.6215368  48.4910488
  42.4421721  40.0922866  48.5646839  42.5076411  39.7141823  49.5849053
  41.5601622  40.7254285  48.4683034  42.3351721  38.9242866  47.5976839
  43.2166721  38.2903977  47.6938220  41.4428177  38.3421141  47.8276357
  42.2691954  39.3016444  46.5772193  45.0431721  42.7772866  49.5696839
  45.8701721  42.3092866  50.4116839  45.3881721  43.8912866  49.0356839
  44.8963770  44.1333059  48.1873540  46.4661721  44.7962866  49.5066839
  47.3761651  44.2057643  49.6129635  46.7541721  45.9762866  48.5696839
  45.7606784  46.4239868  48.5445052  47.4858606  46.7326239  48.8537366
  47.0861721  45.5632866  47.1296839  47.9861721  44.4312866  46.8516839
  48.3731059  43.7384118  47.5988831  48.3361721  44.2812866  45.5236839
  48.9631670  43.4106120  45.3315804  47.9701721  45.1052866  44.4886839
  48.2707453  44.9043727  43.4603895  47.2081721  46.2022866  44.7756839
  46.9584778  46.8900458  43.9677605  46.7461721  46.4542866  46.0846839
  46.1310588  47.3312982  46.2861440  46.2281721  45.3922866  50.9076839
  47.1811721  45.5272866  51.6686839  44.9861721  45.6832866  51.2186839
  44.3355791  45.8253760  50.4593166  44.5761721  46.0762866  52.5646839
  45.3129477  46.7830896  52.9463782  43.2071721  46.7372866  52.5956839
  42.4993801  45.9577175  52.3138990  42.7491721  47.3982866  53.9776839
  43.4562774  48.1783218  54.2599017  41.7564496  47.8331855  53.8616493
  42.7221280  46.6345977  54.7549538  43.0471721  47.8152866  51.6986839
  42.1600907  48.1725300  51.7827312  44.7801721  44.9672866  53.6816839
  45.2611721  45.1802866  54.7696839  44.4791721  43.6992866  53.3126839
  43.9871427  43.5954279  52.4367731  44.7131721  42.5062866  54.1206839
  44.2541449  42.6057356  55.1043012  44.0871721  41.3272866  53.4126839
  44.3250863  41.6082943  52.3867547  44.5523744  40.3689603  53.6435467
  42.5701721  41.2082866  53.5696839  42.0953756  42.1666126  53.3592547
  42.0771721  40.1832866  52.5966839  42.5512095  39.2245148  52.8067884
  40.9960346  40.0819937  52.6914579  42.3247495  40.4958625  51.5822372
  42.1241721  41.0212866  55.0456839  42.4510540  41.8774402  55.6358099
  41.0378891  40.9432664  55.0904424  42.5701381  40.1117355  55.4480892
  46.2041721  42.3202866  54.4126839  46.5351721  42.0992866  55.5556839
  47.0761721  42.4312866  53.4166839  46.7098936  42.3481582  52.4791184
  48.5111721  42.5562866  53.5856839  48.9081344  41.6471891  54.0374160
  49.1991721  42.7722866  52.2356839  48.7000013  43.5121937  51.6100120
  50.2554922  43.0259066  52.3249299  49.1341721  41.2382866  51.3336839
  49.7699149  41.6847403  50.2541430  48.8801721  43.6772866  54.6016839
  49.6471721  43.4572866  55.4776839  48.2781721  44.8642866  54.3616839
  47.5671887  45.0065734  53.6585791  48.6681721  46.0122866  55.2056839
  49.7500725  46.0358219  55.0751585  48.0681721  47.3362866  54.6366839
  47.0707854  47.4841356  55.0507619  48.9521721  48.5152866  55.0116839
  49.9496659  48.3683649  54.5975345  48.5240008  49.4334811  54.6095802
  49.0174376  48.5903670  56.0971349  48.1491721  47.3992866  53.2456839
  47.7701704  48.2267289  52.9402378  48.1051721  45.8342866  56.6886839
  48.6891721  46.3002866  57.6446839  46.8961721  45.1922866  56.8916839
  46.3282195  44.9112548  56.1052042  46.3881721  44.8782866  58.3046839
  46.2097767  45.8079723  58.8450160  45.0611721  44.0752866  58.2476839
  45.1365163  43.2499904  57.5396524  44.7997971  43.6863207  59.2318021
  43.9801721  45.0482866  57.7816839  44.4655353  45.9185071  57.3398244
  43.3696629  44.5514862  57.0276482  42.9231721  45.5852866  59.1406839
  43.9721721  46.6072866  60.0936839  44.3195388  47.4413653  59.4839724
  43.4233365  46.9905451  60.9539124  44.8289569  46.0283943  60.4385098
  47.4121721  44.0382866  59.0666839  47.6071721  44.1952866  60.2696839
  48.0601721  43.0742866  58.3896839  47.7297495  42.7696056  57.4852008
  49.1871721  42.3762866  58.9816839  48.8945680  41.8628564  59.8975831
  49.6711721  41.3412866  57.9776839  48.8094738  40.8847737  57.4906817
  50.2930573  41.8322505  57.2291431  50.4301721  40.3352866  58.6386839
  50.7306370  39.6876562  57.9968931  50.3281721  43.2942866  59.4406839
  50.8451721  43.1502866  60.5546839  50.7511721  44.2362866  58.5756839
  50.4138851  44.1453766  57.6280172  51.8001721  45.2502866  58.8556839
  52.6972423  44.6667897  59.0627966  52.1101721  46.2452866  57.7036839
  51.2034810  46.8401001  57.5931974  53.2981721  47.1632866  57.8556839
  54.2053616  46.5691565  57.9657641  53.3840663  47.7964540  56.9726088
  53.1644247  47.7882817  58.7386303  52.4671721  45.5012866  56.3776839
  51.6275302  44.8761752  56.0738102  52.6774875  46.2313649  55.5961131
  53.3460058  44.8763344  56.5363880  51.5741721  45.9942866  60.1656839
  52.5011721  46.0582866  60.9386839  50.4021721  46.6542866  60.3146839
  49.7854108  46.5637013  59.5200148  50.0301721  47.6202866  61.3946839
  50.7684328  48.4191751  61.4643084  48.6821721  48.2332866  61.0656839
  48.8253858  48.7051178  60.0935911  47.9647316  47.4181520  60.9711605
  48.1481721  49.2722866  62.0656839  48.8491721  50.1742866  62.5046839
  46.9691721  49.0882866  62.4086839  50.1821721  46.9672866  62.7136839
  50.5561721  47.6872866  63.6086839  49.9491721  45.6452866  62.8116839
  49.7360222  45.1100223  61.9821307  49.9871721  44.9702866  64.0536839
  49.6252174  45.6505431  64.8246179  49.1231721  43.6842866  64.0826839
  49.4123203  43.0569448  63.2395144  49.3250239  43.1556162  65.0142758
  47.5681721  44.0172866  63.9876839  47.3646871  44.8574564  64.6516187
  47.3500115  44.3062108  62.9595639  46.6661721  42.8042866  64.3906839
  46.8571989  41.9336686  63.7632829  46.7993815  42.5330461  65.4379581
  45.2811721  43.2322866  64.1896839  45.2008025  43.4802185  63.2138920
  44.1641721  43.1942866  64.9356839  44.0811721  43.1082866  66.2356839
  44.9238802  43.0622612  66.7905035  43.1746394  43.0881779  66.6805364
  43.0491721  43.4602866  64.3396839  43.0473679  43.6837913  63.3547258
  42.1846004  43.4434710  64.8615380  51.4341721  44.5882866  64.3336839
  51.9321721  44.9182866  65.3806839  52.1871721  43.9892866  63.3816839
  51.6400161  43.7522970  62.5664812  53.6191721  43.5972866  63.4066839
  53.7746850  42.8092050  64.1434622  54.0561721  43.0722866  62.0236839
  53.7330172  42.0419548  62.1722988  53.4268128  43.5447202  61.2694867
  55.5361721  43.0872866  61.5466839  56.6321721  42.5412866  62.1896839
  56.4566683  41.9222308  63.0694951  57.9261721  42.7622866  61.7446839
  58.7473434  42.5498259  62.4292568  58.1621721  43.5342866  60.5596839
  59.3651721  43.5292866  59.9366839  60.0105064  42.9671843  60.3716371
  57.0941721  44.0632866  59.8486839  57.2355977  44.5861932  58.9028150
  55.7821721  43.9072866  60.3886839  54.9373761  44.4151711  59.9234172
  54.5701721  44.7082866  63.8396839  55.3151721  44.4412866  64.7306839
  54.3481721  45.9242866  63.3576839  53.7131193  45.9912919  62.5751767
  55.0631721  47.1312866  63.7766839  56.1401736  46.9635961  63.7698411
  54.7181721  48.3882866  62.8716839  53.6571489  48.3028026  62.6371152
  55.0051721  49.8052866  63.4926839  56.0661536  49.8916966  63.7271028
  54.7275160  50.5791764  62.7770706  54.4209431  49.9279734  64.4046727
  55.4921721  48.2202866  61.5736839  56.5165424  48.0197548  61.8876160
  55.0712529  47.3252109  61.1156818  55.4851721  49.3662866  60.5556839
  55.9064044  50.2616430  61.0128493  56.0830112  49.0861800  59.6883731
  54.4611139  49.5671006  60.2409167  54.8461721  47.3772866  65.2246839
  55.8221721  47.5122866  65.9376839  53.6111721  47.3742866  65.6736839
  52.8672159  47.2339563  65.0051513  53.2461721  47.8022866  67.0646839
  53.7499750  48.7673568  67.1187335  51.7711721  48.0222866  67.2216839
  51.2537537  47.0638806  67.1788337  51.5744996  48.4981441  68.1824023
  51.4115883  48.6649754  66.4180983  53.8541721  46.9362866  68.1936839
  53.9181721  47.4062866  69.3646839  54.4421721  45.7992866  67.8676839
  54.2359642  45.4940598  66.9272509  55.2131721  44.8962866  68.7426839
  55.2299028  45.3629889  69.7275739  54.5371721  43.5442866  68.8586839
  54.9143934  42.8915672  68.0714351  54.8271721  42.9062866  70.2416839
  54.4497991  43.5582591  71.0294798  54.3335483  41.9365797  70.3057503
  55.9023406  42.7748500  70.3634983  52.9671721  43.7012866  68.7966839
  52.6842771  44.1571142  67.8478459  52.4997696  42.7202493  68.8815382
  52.6321726  44.3350299  69.6178085  56.6461721  44.7572866  68.3786839
  57.5231721  45.0222866  69.2146839  56.9661721  44.5132866  67.1106839
  56.2195033  44.1990515  66.5074913  58.3521721  44.4912866  66.5836839
  58.9801436  43.8985611  67.2488361  58.4131721  43.8712866  65.1596839
  57.6897048  44.3011165  64.4669065  59.4069871  43.9043672  64.7132115
  57.9841721  42.1062866  65.3076839  58.1047985  41.8248930  64.0134022
  59.0761721  45.7832866  66.6526839  60.2031721  45.7652866  67.0096839
  58.4651721  46.9582866  66.3866839  57.4705703  46.8633216  66.2388725
  59.0951721  48.3092866  66.1626839  60.0821382  48.3791056  66.6199830
  59.2471721  48.4622866  64.6396839  58.2152065  48.2751880  64.3427998
  59.5657422  49.4307462  64.2540685  60.0751721  47.4422866  63.9586839
  60.0191721  46.8522866  62.6746839  61.0731721  46.0312866  62.4236839
  61.1445947  45.4782814  61.4871034  61.8711721  46.0722866  63.4586839
  62.7343418  45.5651360  63.5922362  61.2871721  47.0062866  64.4246839
  61.8230666  47.2465679  65.3429340  58.3281721  49.4772866  66.8576839
  58.0091721  50.4352866  66.1126839  58.0151721  49.3492866  68.1856839
  58.3911721  48.2972866  69.1076839  59.3591254  48.5547493  69.5376604
  58.4801960  47.3689873  68.5433842  57.3081721  48.2392866  70.1296839
  57.7281629  47.9338468  71.0880227  56.5523499  47.5182040  69.8184383
  56.7351721  49.6142866  70.1996839  57.2103569  50.2798146  70.9203579
  55.6664283  49.5590348  70.4066462  56.9641721  50.1322866  68.7886839
  56.0606257  49.9341768  68.2120952  57.2141721  51.6242866  68.8366839
  56.2321721  52.4132866  69.0246839  58.4721721  52.0312866  68.5586839
  59.1331140  51.2996695  68.3396141  58.9511721  53.4742866  68.5096839
  58.4977220  53.9466408  69.3810986  60.5081721  53.5172866  68.6706839
  60.9606605  53.2382338  67.7191152  61.0091721  54.9522866  69.0896839
  60.5574374  55.2318589  70.0414591  62.0943377  54.9433592  69.1918426
  60.7225960  55.6751354  68.3258348  60.9531721  52.6622866  69.8436839
  60.6458914  51.6296254  69.6784825  62.0383130  52.7075895  69.9359690
  60.4952501  53.0349243  70.7599532  58.6201721  54.1082866  67.1616839
  58.2431721  55.2662866  67.1096839  58.6471721  53.3042866  66.1036839
  59.1929753  52.4650625  66.2374791  58.1531721  53.6132866  64.7356839
  58.2439358  54.6795715  64.5285663  59.0351721  52.8062866  63.6656839
  58.7643430  51.7555731  63.7693748  58.7326050  53.1635140  62.6813355
  60.5631721  52.9612866  63.8216839  60.7685489  54.0180126  63.6506531
  60.7772478  52.7137185  64.8613875  61.4631721  52.1002866  62.8876839
  61.1737113  51.0494260  62.8895264  61.4704651  52.4728090  61.8633435
  62.8451721  52.2432866  63.4856839  63.1171537  53.2977090  63.5338514
  62.8564508  51.8194490  64.4898421  63.8101721  51.5272866  62.6416839
  63.8001878  51.9201532  61.7112776  64.7354645  51.6191196  63.0360198
  63.5585730  50.5501357  62.5972659  56.6581721  53.4832866  64.5486839
  56.0701721  54.2462866  63.8336839  56.0481721  52.6642866  65.3816839
  56.5858839  51.8646406  65.6842257  54.5981721  52.6572866  65.6156839
  54.2567853  52.4285279  64.6061178  54.2411721  51.4312866  66.5626839
  54.5687352  51.6492763  67.5791892  53.1634829  51.2680679  66.5559171
  54.7461776  50.5347275  66.2031696  53.9591721  53.9932866  65.9166839
  52.8521721  54.3002866  65.3826839  54.6771721  54.8702866  66.5866839
  55.5441649  54.5144533  66.9632547  54.2741721  56.2302866  66.9406839
  53.3453261  56.2084926  67.5106569  55.3631721  56.8942866  67.8006839
  56.2222728  57.0528085  67.1488280  54.9033531  57.8544098  68.0348421
  55.8331721  56.2052866  69.1236839  56.4510764  55.3294604  68.9256346
  56.6551721  57.2492866  69.8316839  56.0377774  58.1252975  70.0304992
  57.0244833  56.8442938  70.7738574  57.4991939  57.5351542  69.2039838
  54.6681721  55.8622866  69.9926839  54.0055686  55.1799167  69.4603050
  55.0234803  55.3845050  70.9056911  54.1239097  56.7717222  70.2472511
  53.8901721  57.0622866  65.7416839  52.9821721  57.8602866  65.8776839
  54.4331721  56.8162866  64.5816839  55.2412809  56.2116628  64.5430892
  53.9801721  57.4472866  63.3436839  53.3622637  58.3113313  63.5880508
  55.1621721  57.9172866  62.4756839  55.7074028  57.0724889  62.0548043
  54.6467692  58.4506880  61.6769707  56.1381721  58.8572866  63.1646839
  55.8151721  59.5462866  64.1216839  57.3491721  58.8462866  62.8226839
  53.0651721  56.5682866  62.5056839  52.0571721  57.0722866  61.9796839
  53.3601721  55.2672866  62.4866839  54.0385471  54.8447281  63.1042201
  52.6131721  54.3822866  61.5436839  52.6227204  54.7651035  60.5231648
  53.3341721  53.0752866  61.5696839  54.4193322  53.1701288  61.5305448
  53.0491834  52.5401116  62.4754814  52.9431721  52.2172866  60.4306839
  53.5511721  52.5512866  59.1916839  54.2349630  53.3922979  59.0766617
  53.2341721  51.7342866  58.0716839  53.6429352  52.0104743  57.0997097
  52.4271721  50.6102866  58.1916839  52.2174872  49.9603305  57.3421610
  51.8581721  50.3112866  59.4906839  51.2290136  49.4274541  59.5960400
  52.1061721  51.1432866  60.6126839  51.6391561  50.9186306  61.5716029
  51.1191721  54.1042866  61.9636839  50.2611721  54.0112866  61.1546839
  50.8531721  54.2992866  63.1996839  51.6891515  54.2007542  63.7578319
  49.5731721  54.3992866  63.8856839  48.7985088  53.8035576  63.4028767
  49.8211721  53.8312866  65.3076839  50.5017240  52.9897897  65.1779485
  50.3251695  54.6234939  65.8613032  48.5851721  53.3722866  66.0856839
  48.9610205  53.0597304  67.0599259  47.9732658  54.2666935  66.2027693
  47.7421721  52.2562866  65.4856839  46.8559709  52.1258292  66.1067534
  47.4409300  52.5573146  64.4823222  48.4701721  50.9342866  65.3966839
  49.0613202  50.8481615  64.5822971  48.3911721  49.9222866  66.2196839
  47.8951721  50.1242866  67.4346839  47.5884603  51.0480058  67.7044444
  47.8268822  49.3532917  68.0835312  48.7831721  48.7732866  65.9426839
  49.1891942  48.5861629  65.0370179  48.6931745  48.0340997  66.6250341
  48.8431721  55.7042866  63.7886839  47.6391721  55.7222866  64.0736839
  49.4531721  56.7962866  63.3526839  50.4561298  56.9137373  63.3721930
  48.5791721  58.0272866  63.0416839  47.8470225  58.2772210  63.8095308
  49.4721721  59.2512866  62.7986839  48.7695258  60.0369770  62.5210526
  50.3751721  59.7502866  63.8806839  51.0784543  58.9652454  64.1585402
  50.9255315  60.6204249  63.5228248  49.7808251  60.0295159  64.7506742
  50.2561721  59.0612866  61.6436839  50.8098533  59.8326835  61.5023176
  47.4591721  57.8392866  61.9416839  47.6971721  57.1432866  60.9336839
  46.3331721  58.4952866  62.0666839  45.8901721  59.1592866  63.3476839
  46.6398119  59.8825923  63.6685725  45.7537173  58.4086119  64.1261225
  44.5461721  59.8342866  62.9296839  44.7073398  60.8630310  62.6074897
  43.8284059  59.8191867  63.7498577  44.0721721  58.9562866  61.7746839
  43.5776025  59.6046927  61.0514485  43.3803201  58.1780746  62.0969050
  45.2681721  58.3452866  61.1646839  45.1126494  57.2831425  60.9755784
  45.5841721  59.0862866  59.7936839  45.4011721  58.5142866  58.6676839
  46.1971721  60.3202866  59.8276839  46.2167431  60.9359791  60.6280832
  46.7521721  60.8262866  58.5256839  45.9631022  61.0874128  57.8205024
  47.5721721  62.1382866  58.8776839  46.8780726  62.9193264  59.1880095
  48.2606499  61.9194867  59.6939100  48.3591721  62.6122866  57.6636839
  49.2559853  62.0125817  57.5081818  47.7503135  62.5956110  56.7597397
  48.7661721  64.0792866  57.9876839  47.8552167  64.6673099  58.0994323
  49.3155452  64.0789189  58.9291129  49.6011721  64.6992866  56.9576839
  49.5605072  64.2896406  56.0353847  50.3511721  65.7682866  57.1386839
  50.4211721  66.4812866  58.2106839  49.8640280  66.2332325  59.0157675
  51.0328159  67.2844785  58.2402519  51.1761721  66.1952866  56.2046839
  51.2417786  65.6986788  55.3276568  51.7392777  67.0172983  56.3699340
  47.5771721  59.8082866  57.7006839  47.3211721  59.6162866  56.5316839
  48.4421721  58.9842866  58.2766839  48.5316868  58.9867371  59.2827060
  49.2921721  58.0072866  57.4796839  49.7154995  58.4644056  56.5852928
  50.4311721  57.6062866  58.4066839  50.9331806  58.5611064  58.5629077
  50.1076023  57.2050842  59.3671209  51.4661721  56.5882866  57.7526839
  52.1681721  56.8512866  56.7506839  51.3721721  55.3872866  58.2816839
  51.9751698  54.6460677  57.9544406  50.6974526  55.2121371  59.0125580
  48.4171721  56.7502866  57.1046839  48.5061721  56.2382866  56.0106839
  47.4841721  56.3142866  57.9746839  47.4340327  56.8037069  58.8567571
  46.5971721  55.2002866  57.7606839  47.1340762  54.2858750  57.5083259
  45.7901721  54.9582866  59.0726839  45.2399030  55.8623546  59.3333848
  45.0889813  54.1374081  58.9223841  46.4766806  54.7056829  59.8807661
  45.6631721  55.5182866  56.5566839  45.2951721  54.5402866  55.8266839
  45.2601721  56.7752866  56.3346839  45.4693114  57.4077945  57.0938241
  44.5211721  57.2922866  55.1866839  43.6342135  56.6890321  54.9930668
  44.0801721  58.7232866  55.5006839  44.9212941  59.2210492  55.9832246
  43.8672444  59.2108486  54.5493453  42.8141721  58.8132866  56.4306839
  41.9753447  58.3139763  55.9457524  43.0293083  58.3221950  57.3797084
  42.4571721  60.2782866  56.6846839  43.3170572  60.8127842  57.0884277
  42.1353985  60.7553345  55.7589482  41.3191721  60.3122866  57.6946839
  40.5229017  59.6790090  57.3035146  41.6997047  59.8851788  58.6225164
  40.7911721  61.6562866  57.9556839  40.4381191  62.0520627  57.0961407
  40.0432439  61.5986772  58.6319859  41.5287540  62.2431372  58.3185593
  45.3461721  57.2272866  53.9166839  44.7771721  56.6792866  52.9206839
  46.5161721  57.8772866  53.9136839  46.6963579  58.5042029  54.6847924
  47.4251721  57.9012866  52.7786839  46.9221000  58.1736813  51.8508807
  48.5941721  58.8052866  52.9946839  48.9986856  58.5313662  53.9690744
  49.7311721  58.7642866  51.9306839  49.3274924  59.0385623  50.9560475
  50.5158353  59.4676565  52.2093869  50.1469167  57.7579114  51.8810404
  48.1951721  60.2702866  53.1806839  47.9384066  60.6199243  52.1807210
  47.2962231  60.2398959  53.7963677  49.2151721  61.2292866  53.8116839
  50.1142746  61.2605614  53.1962681  48.7841706  62.2284257  53.8753871
  49.4720929  60.8805314  54.8119146  47.8201721  56.5202866  52.2826839
  47.8411721  56.2312866  51.0456839  48.0131721  55.5592866  53.1386839
  48.0644610  55.7912966  54.1203357  48.2501721  54.1792866  52.7426839
  48.9412432  54.1699308  51.8998124  48.8471721  53.2942866  53.9296839
  48.2389566  53.3844823  54.8297056  48.8211721  51.8682866  53.4476839
  49.4295877  51.7772015  52.5478869  49.2203901  51.2147145  54.2232929
  47.7946880  51.5790209  53.2223957  50.2731721  53.7022866  54.3136839
  50.9479404  53.2974571  53.5594282  50.3219172  54.7910715  54.2972263
  50.6921721  53.1912866  55.7036839  50.6441202  52.1024804  55.7207707
  51.7114617  53.5128735  55.9175295  50.0180951  53.5960934  56.4585690
  46.9651721  53.5232866  52.1826839  47.0631721  52.8652866  51.1426839
  45.7991721  53.7392866  52.7626839  45.7967170  54.0635584  53.7192095
  44.5381721  53.2962866  52.1796839  44.6084757  52.2362523  51.9357907
  43.3231721  53.5072866  53.1806839  43.5272593  54.3584336  53.8302965
  42.3854322  53.6724266  52.6501440  43.1861721  52.3022866  54.0136839
  42.5121721  51.4032866  53.6196839  43.7761721  52.2342866  55.1796839
  43.6766778  51.4031596  55.7448640  44.3283050  53.0132453  55.5090371
  44.2941721  53.8352866  50.7176839  43.9041721  53.0682866  49.8206839
  44.4181721  55.1012866  50.5016839  44.6304089  55.6512018  51.3218353
  44.2251721  55.7892866  49.2476839  43.2009688  55.6498559  48.9017566
  44.4911721  57.2922866  49.3986839  45.3384552  57.3643519  50.0806056
  44.7901721  58.1072866  48.1166839  43.9430882  58.0360736  47.4344241
  44.9570280  59.1517220  48.3801500  45.6811999  57.7086475  47.6316499
  43.3531721  58.0172866  50.0086839  43.1542372  57.6130804  51.0012283
  43.5982527  59.0762127  50.0906032  42.4681629  57.8969876  49.3838739
  45.1171721  55.1982866  48.1506839  44.7741721  54.9582866  47.0056839
  46.3721721  54.7632866  48.5266839  46.6199526  54.9152303  49.4939570
  47.3951721  54.1452866  47.6186839  47.4691018  54.7442751  46.7110241
  48.7961721  54.0682866  48.2766839  48.7019287  53.7271716  49.3076339
  49.4275885  53.3747453  47.7213338  49.7121721  55.6392866  48.3466839
  50.7898408  55.1451229  48.9494531  46.9061721  52.7492866  47.2216839
  47.0271721  52.3942866  46.0326839  46.3661721  51.9852866  48.1716839
  46.5911424  52.1824123  49.1363751  45.6441721  50.7432866  47.8646839
  46.2797934  50.0461650  47.3186929  45.2191721  50.0742866  49.2326839
  44.6676453  50.8349698  49.7852041  44.5600681  49.2334510  49.0166343
  46.3631721  49.5832866  50.0956839  47.5451721  49.6122866  49.7686839
  45.9701721  49.0862866  51.2346839  46.6521005  48.7289906  51.8884522
  44.9855452  49.0607825  51.4582015  44.5301721  50.8612866  46.8396839
  44.4701721  50.0132866  45.9296839  43.6041721  51.8402866  46.9606839
  43.5464497  52.2449858  47.8842563  42.6491721  52.2732866  45.9596839
  41.9850775  51.4398515  45.7306349  41.7931721  53.4742866  46.4216839
  42.3697726  54.2644419  46.9026056  41.3531604  53.8556980  45.5002638
  40.6401721  53.1512866  47.3516839  40.5611721  53.3392866  48.7056839
  41.3766130  53.8471767  49.2206632  39.3741721  52.7992866  49.1356839
  39.2257286  52.6090472  50.1164351  38.5091721  52.4572866  48.1106839
  37.2731721  51.9332866  48.0846839  36.7594989  51.8084190  49.0379134
  36.7281721  51.5852866  46.8596839  35.7139637  51.1865099  46.8382767
  37.4291721  51.7262866  45.6526839  37.0601892  51.3909005  44.6834227
  38.6821721  52.3372866  45.7006839  39.1622443  52.4713684  44.7313267
  39.3151721  52.6802866  46.9386839  43.3261721  52.5862866  44.6066839
  43.0361721  51.9322866  43.6336839  44.1821721  53.6122866  44.5376839
  44.2574001  54.1940640  45.3598610  44.8901721  54.0462866  43.2956839
  44.1233481  54.2220712  42.5412438  45.8271721  55.2962866  43.3876839
  46.6404980  55.0668538  44.0761329  46.3951721  55.6622866  42.0466839
  45.5824044  55.8923191  41.3577759  47.0404895  56.5345573  42.1506556
  46.9755097  54.8260348  41.6568245  45.0891721  56.5272866  43.9706839
  44.6573574  57.0850726  43.1397136  44.2907751  56.1650348  44.6183221
  46.0001721  57.4242866  44.7546839  46.7986182  57.7873273  44.1075477
  45.4329177  58.2711075  45.1409690  46.4320378  56.8672884  45.5861554
  45.6391721  52.8902866  42.6516839  45.4371721  52.7522866  41.4276839
  46.4501721  52.0412866  43.2996839  46.6478500  52.2526209  44.2673412
  47.2031721  50.9882866  42.6616839  47.4958466  51.2938520  41.6571588
  48.4781721  50.6842866  43.4756839  48.1839284  50.4014247  44.4863812
  48.9807080  49.8445472  42.9956886  49.4871721  51.9512866  43.5416839
  48.9766792  52.7992895  43.9981803  50.7061721  51.5862866  44.3736839
  51.2174827  50.7385952  43.9175266  51.3847079  52.4381755  44.4181291
  50.3915290  51.3200297  45.3827465  50.0071721  52.4102866  42.2276839
  49.1743278  52.7082632  41.5907540  50.6724164  53.2607989  42.3766142
  50.5567858  51.5989985  41.7503630  46.2941721  49.7552866  42.3256839
  46.7421721  48.6752866  41.8846839  45.0001721  49.8822866  42.6296839
  44.7497845  50.6071352  43.2869510  43.8971721  49.0722866  42.0076839
  44.2994742  48.1529970  41.5820563  42.8301721  48.6942866  43.1066839
  42.3461881  49.6195749  43.4192544  42.0956762  48.0425090  42.6336071
  43.3621721  48.0632866  44.2036839  42.6615814  47.8631741  44.8287659
  43.0151721  49.7112866  40.9236839  42.4481721  49.1052866  40.0306839
  43.0471721  51.0812866  40.9066839  43.2471660  51.5592755  41.7736490
  42.6441721  51.9012866  39.7206839  41.6069255  51.7312452  39.4320587
  42.7991721  53.4002866  40.1826839  42.3797919  53.5197467  41.1816577
  43.8550556  53.6704393  40.1977759  42.0881721  54.2692866  39.2496839
  42.1812144  55.1829879  39.5291351  43.3911721  51.5092866  38.4456839
  42.7111721  51.2832866  37.4686839  44.6961721  51.2602866  38.6126839
  45.0927173  51.6361571  39.4621382  45.6301721  50.7102866  37.5736839
  45.3596859  51.2557026  36.6695501  47.0631721  51.1092866  37.9796839
  47.3517393  50.5643855  38.8785230  47.7517934  50.8653389  37.1707399
  47.1004262  52.1805931  38.1772033  45.4051721  49.2552866  37.2166839
  46.0331721  48.7012866  36.3516839  44.3471721  48.5822866  37.7736839
  44.2603708  48.7131152  38.7714057  43.6281721  47.4132866  37.1386839
  43.7649883  47.3106501  36.0621867  43.9031721  46.0202866  37.8406839
  44.9790042  45.8500110  37.7995492  43.4311721  45.9402866  39.2886839
  42.3552824  46.1100121  39.3305775  43.6587444  44.9533710  39.6915599
  43.9416630  46.7002189  39.8802929  43.3991721  44.9412866  36.8876839
  42.3282459  44.8018589  37.0352567  43.5863271  45.2523129  35.8599022
  44.1181721  43.6402866  37.1586839  43.9310969  43.3283635  38.1862085
  43.7536636  42.8738089  36.4747653  45.1891790  43.7788184  37.0108560
  42.2141721  47.6412866  36.6766839  41.9401721  47.2792866  35.5516839
  41.3401721  48.2282866  37.5116839  41.6385469  48.5364113  38.4260859
  39.9411721  48.4392866  37.1296839  39.5032379  47.4453072  37.0384825
  39.4790674  48.9640229  37.9658719  39.6691721  49.2342866  35.8206839
  38.8491721  48.8032866  35.0256839  40.3361721  50.3522866  35.6146839
  40.9748437  50.6641314  36.3322846  40.1231721  51.2122866  34.4586839
  39.0566324  51.3272070  34.2653304  40.7401721  52.6342866  34.7376839
  41.8265725  52.5648983  34.6827401  40.3747493  53.2581572  33.9219930
  40.3371721  53.2552866  36.0726839  40.5743533  52.5688617  36.8854980
  41.1111721  54.5602866  36.2656839  40.8741350  55.2474394  35.4534443
  40.8306141  55.0124407  37.2169697  42.1811474  54.3523165  36.2643748
  38.8271721  53.6262866  36.0876839  38.2302713  52.7283176  35.9281205
  38.5701674  54.0663125  37.0512331  38.6211026  54.3446603  35.2942272
  40.7171721  50.4922866  33.1886839  40.0861721  50.6132866  32.1616839
  41.8491721  49.7932866  33.2636839  43.0541721  50.0682866  34.1096839
  42.8813553  49.5976589  35.0775394  43.1172134  51.1488942  34.2377932
  44.2661721  49.4982866  33.3916839  44.9382353  49.0258597  34.1080937
  44.7967672  50.2914747  32.8649744  43.7051721  48.5002866  32.4286839
  43.7265577  47.4447489  32.6997590  44.2704974  48.6501859  31.5088811
  42.2151721  48.9712866  32.2266839  42.3502661  49.6052373  31.3503538
  41.2051721  47.8692866  31.9066839  40.8541721  47.6152866  30.7776839
  40.6781721  47.1362866  32.8826839  41.0970985  47.2919460  33.7884268
  39.6411721  46.1432866  32.7716839  39.9274441  45.3221730  32.1144777
  39.3451721  45.5582866  34.2126839  39.4373147  46.3760438  34.9274442
  37.9421721  44.9272866  34.3316839  37.8494312  44.1090930  33.6174996
  37.7998597  44.5445958  35.3423250  37.1846867  45.6817781  34.1194104
  40.3951721  44.5082866  34.5546839  41.3844888  44.9656839  34.5427552
  40.1948039  44.1029220  35.5464660  40.3583781  43.7041018  33.8198140
  38.3601721  46.7252866  32.1436839  37.8271721  46.0652866  31.2576839
  37.8781721  47.9492866  32.4856839  38.3302604  48.4489541  33.2380455
  36.6621721  48.5882866  31.8206839  35.7632863  48.0383449  32.0993728
  36.5011721  50.0292866  32.2536839  37.4635002  50.5404569  32.2266849
  35.7987075  50.5434470  31.5977247  35.9431721  50.0362866  33.7306839
  35.1047257  49.3402753  33.7566970  36.7418459  49.6663890  34.3736442
  35.4031721  51.6252866  34.3236839  35.3351721  51.1612866  36.0726839
  36.3240663  50.8440632  36.4036772  35.0121262  52.0180010  36.6641080
  34.6283311  50.3420910  36.2045761  36.6571721  48.5852866  30.2586839
  35.6291721  48.5012866  29.5566839  37.8541721  48.6512866  29.7306839
  38.6435748  48.7129938  30.3576887  38.1021721  48.7372866  28.2966839
  37.1967967  49.0363227  27.7685061  39.2331721  49.8332866  28.0316839
  40.0104198  49.6760205  28.7795159  39.6540724  49.6934422  27.0360000
  38.8291721  51.2772866  28.1286839  38.5231721  51.9352866  26.9186839
  38.6955330  51.3706095  26.0024245  38.0251721  53.2372866  26.8526839
  37.6612218  53.7021634  25.9364249  38.0091721  53.9642866  28.0726839
  37.7272006  55.0171253  28.0616026  38.3641721  53.3182866  29.3296839
  38.3105876  53.8589982  30.2745965  38.7811721  51.9752866  29.3106839
  39.0692382  51.4808861  30.2384155  38.4801721  47.3512866  27.6386839
  38.3921721  47.2192866  26.4396839  38.9031721  46.4032866  28.4506839
  39.2443888  46.6879856  29.3576663  38.9971721  45.0022866  28.0896839
  39.2243918  44.9127057  27.0274007  40.1321721  44.2882866  28.9076839
  39.8789104  44.3585386  29.9655224  40.1534795  43.2403575  28.6085341
  41.5061721  44.9132866  28.6706839  41.6421909  44.8197561  27.5932556
  41.3529686  45.9614896  28.9273964  42.9781721  44.3092866  29.5066839
  42.7491721  44.6862866  31.2536839  41.8545119  44.1830125  31.6202860
  43.6161543  44.3412466  31.8170577  42.6381213  45.7629911  31.3820444
  37.6761721  44.2062866  28.2356839  37.5391721  43.1942866  27.5406839
  36.6041721  44.7062866  28.8466839  36.8013416  45.6468053  29.1575668
  35.2991721  44.1162866  29.1906839  35.3648083  43.0284954  29.1682926
  34.8361721  44.5652866  30.6356839  34.7570223  45.6518303  30.6711535
  33.8655039  44.1232698  30.8604605  35.5666099  44.2304839  31.3722075
  34.2871721  44.5112866  28.0716839  34.2761721  45.6812866  27.6796839
  33.4971721  43.5302866  27.5986839  33.5551622  42.5839904  27.9469080
  32.5191721  43.8252866  26.4726839  31.9775905  44.7561474  26.6408706
  33.3631721  43.9692866  25.1766839  34.1813062  43.2552905  25.2713751
  32.6231721  43.7282866  23.8476839  31.8051286  44.4422619  23.7520612
  33.3164809  43.8574423  23.0165756  32.2234292  42.7143462  23.8324859
  33.8841721  45.2392866  25.0796839  34.4022749  45.3119886  24.2747713
  31.4991721  42.7272866  26.3716839  31.8541721  41.5742866  26.5406839
  30.3181721  43.0562866  25.9366839  30.1647238  44.0488836  25.8303629
  29.1811721  42.1472866  25.7196839  29.1870077  41.1881936  26.2375698
  27.8471721  42.8322866  25.9796839  27.0932834  42.1281015  25.6277246
  27.5171721  43.2582866  27.4396839  28.2704226  43.9628786  27.7921942
  26.5359351  43.7321006  27.4674898  27.5137024  42.3786716  28.0833965
  27.6001721  43.8812866  25.0686839  26.7520026  44.2846461  25.2674546
  29.2371721  41.4912866  24.3096839  29.4011721  42.2762866  23.3406839
  29.1981721  40.1932866  24.1626839  29.0622930  39.6220088  24.9844368
  29.3261721  39.5152866  22.8466839  29.3367112  40.2149401  22.0109369
  30.7361721  38.7852866  22.9156839  30.9854614  38.5804237  23.9568300
  30.6836085  37.8468150  22.3637708  31.8111721  39.6762866  22.3016839
  31.8699317  40.5438557  22.9589298  32.7337603  39.1007601  22.3771980
  31.6171721  40.1462866  20.8476839  31.5489645  39.2407870  20.2447600
  30.6615018  40.6700102  20.8251604  32.7041721  41.0502866  20.2836839
  32.3307470  41.5248009  19.3762202  32.9423835  41.8160663  21.0218817
  33.9321721  40.2682866  19.9656839  33.7117509  39.5589212  19.2813485
  34.6384203  40.8870937  19.5936741  34.2786006  39.8288573  20.8065098
  28.2081721  38.5112866  22.6556839  27.7431721  37.8452866  23.6446839
  27.8271721  38.2892866  21.3726839  28.0003432  38.9644625  20.6417607
  27.0371721  37.1212866  21.0536839  26.1727026  37.0818377  21.7164323
  26.5461721  37.1492866  19.6166839  27.4246424  37.0278969  18.9829222
  25.8640487  36.3146114  19.4550516  25.8401721  38.4602866  19.2636839
  24.4031721  38.6422866  19.3636839  23.7059624  37.8157283  19.5007949
  23.9181721  39.9712866  19.2746839  22.8667174  40.1815762  19.4704469
  24.7681721  40.9952866  18.8566839  24.2661721  42.2642866  18.8356839
  23.3508882  42.3103764  19.1215696  26.1191721  40.7492866  18.5476839
  26.7514581  41.5252545  18.1161880  26.6571721  39.4552866  18.8096839
  27.7177212  39.2629162  18.6474209  27.7601721  35.7932866  21.3586839
  28.9581721  35.7652866  21.1396839  27.0281721  34.7242866  21.8296839
  26.0322722  34.8096584  21.9745779  27.7201721  33.4282866  22.2756839
  28.4687068  33.1469098  21.5349936  28.4311721  33.6022866  23.6676839
  29.2178223  34.3496450  23.5640676  27.6944099  33.9490873  24.3922601
  29.0461721  32.2722866  24.1556839  28.2553356  31.5275889  24.2457041
  29.7824684  31.9333234  23.4269358  29.7221721  32.4622866  25.5106839
  30.4224998  33.2918780  25.4136360  28.9461499  32.7248024  26.2296932
  30.4651721  31.2632866  26.0216839  30.8113020  30.6804262  25.2729735
  30.6351721  30.8512866  27.2806839  30.9981721  29.6742866  27.5386839
  31.1657912  29.0239512  26.7843182  31.1201260  29.3856972  28.4988625
  30.3491721  31.5942866  28.3116839  29.9820203  32.5249607  28.1733172
  30.4959132  31.2362232  29.2446128  26.6511721  32.3892866  22.2186839
  25.6201721  32.5222866  22.9746839  26.7141721  31.4142866  21.3536839
  27.3958651  31.5181955  20.6157158  25.5921721  30.4372866  21.1536839
  25.6482971  29.9869057  20.1626712  25.7081721  29.3202866  22.2096839
  26.7505435  29.2612927  22.5228628  25.0884163  29.5984715  23.0621016
  25.2571721  27.9542866  21.6736839  24.2912696  27.8282507  21.1845539
  26.0549822  27.7663701  20.9551517  25.3681721  26.9362866  22.8016839
  26.0811721  27.0302866  23.7996839  24.4221721  26.0062866  22.7976839
  24.4188526  25.2906053  23.5103484  23.7096081  26.0181942  22.0819940
  24.2211721  30.9862866  20.7966839  23.2411721  30.4532866  21.2066839
  24.0831721  32.0932866  20.0996839  24.9283949  32.4815867  19.7060841
  22.8111721  32.7962866  19.8546839  22.9523169  33.3590712  18.9319430
  22.0645022  32.0184839  19.6946641  22.3091721  33.7562866  20.9576839
  21.4191721  34.6462866  20.6786839  22.7711721  33.5712866  22.1756839
  23.2891331  32.7123532  22.2942127  22.5601721  34.4352866  23.3636839
  21.5290128  34.7884360  23.3539271  22.8211721  33.7032866  24.7076839
  22.4551833  34.3081311  25.5373312  22.3133682  32.7388027  24.7101482
  24.2171721  33.5022866  24.8496839  24.3926878  33.0498327  25.6779831
  23.4601721  35.7032866  23.2796839  24.1921721  35.8762866  22.2666839
  23.3981721  36.5762866  24.2496839  22.5593608  36.5540336  24.8118224
  24.4591721  37.5792866  24.5946839  25.2429181  37.4597260  23.8466554
  23.9431721  39.0402866  24.5726839  22.9540438  39.0434267  25.0306310
  24.8461721  40.0162866  25.3106839  25.8354186  40.0140441  24.8529863
  24.4221755  41.0188069  25.2534061  24.9290792  39.7165618  26.3553803
  23.8781721  39.5582866  23.1176839  24.9130357  39.7475259  22.8324704
  23.4869396  38.7260492  22.5325194  23.0331721  40.8172866  22.8476839
  23.4241151  41.6501232  23.4321895  23.0784970  41.0653916  21.7872647
  21.9980189  40.6286469  23.1322409  24.9461721  37.2732866  25.9976839
  24.1191721  37.0502866  26.9106839  26.2861721  37.3542866  26.1406839
  26.7370207  37.4344875  25.2404602  27.1421721  37.2442866  27.3496839
  26.5706060  37.1659768  28.2744968  27.9101721  35.9152866  27.1276839
  27.1941987  35.1635508  26.7954574  28.6320346  36.1049155  26.3332939
  28.6351721  35.4122866  28.3586839  28.4991721  36.0002866  29.4616839
  29.3491721  34.3762866  28.2016839  28.0871721  38.4422866  27.6896839
  28.5321721  39.0692866  26.7146839  28.4651721  38.6862866  28.9516839
  28.0787930  38.0816204  29.6624506  29.3701721  39.7522866  29.3676839
  29.5025681  40.4649489  28.5536305  28.7971721  40.4942866  30.5796839
  27.8987423  41.0464463  30.3039254  28.5616939  39.7960385  31.3828648
  29.9461721  41.7212866  31.2956839  29.1308831  42.1258471  32.2654947
  30.7171721  39.1262866  29.7236839  30.7911721  38.3142866  30.6126839
  31.7491721  39.3712866  28.9326839  31.6189614  39.9816281  28.1385631
  33.1001721  38.7282866  29.1266839  33.1952811  38.5122901  30.1908263
  33.2361721  37.4042866  28.3396839  32.3317163  36.8122419  28.4794802
  33.4401721  37.7002866  26.7956839  34.3447518  38.2919420  26.6550453
  33.5344127  36.7590559  26.2541097  32.5818153  38.2536740  26.4147816
  34.3871721  36.5652866  28.6806839  34.3777001  35.7732648  28.1382707
  34.1751721  39.7082866  28.7116839  33.9021721  40.9042866  28.5616839
  35.4881721  39.2822866  28.7596839  35.6528230  38.3553022  29.1253193
  36.6661721  40.0872866  28.3116839  36.4483582  41.1520359  28.3951417
  37.8891721  39.7612866  29.2026839  38.0597998  38.6993984  29.0255430
  38.7506905  40.3304026  28.8534086  37.6851721  40.0112866  30.7526839
  36.8790117  39.3691624  31.1074834  38.9941721  39.6932866  31.5496839
  39.8007244  40.3353877  31.1957368  38.8264604  39.8733813  32.6115405
  39.2682192  38.6493193  31.3975954  37.2281721  41.4382866  30.9586839
  36.2877698  41.5988758  30.4314704  37.0837510  41.6240410  32.0229861
  37.9831817  42.1217989  30.5702634  36.9961721  39.7522866  26.8726839
  37.2561721  38.6292866  26.4556839  37.2091721  40.8272866  26.1266839
  36.7392632  41.6772282  26.4039640  37.9011721  40.7982866  24.7926839
  38.2200795  39.7615736  24.6848717  37.0811721  41.1932866  23.5486839
  36.8089113  42.2361262  23.7113490  37.7181721  41.0492866  22.2066839
  37.9903071  40.0065586  22.0430979  37.0167304  41.3665433  21.4350448
  38.6133646  41.6694397  22.1604093  35.9171721  40.3222866  23.4616839
  35.3976307  40.5586552  22.6897986  39.2561721  41.5482866  24.8636839
  39.3041721  42.8022866  24.9526839  40.3661721  40.7962866  24.6036839
  40.2361658  39.7947071  24.5976678  41.7291721  41.3252866  24.4146839
  41.9133974  42.2461890  24.9679461  42.6231721  40.2172866  24.9936839
  42.4640300  39.2856173  24.4507610  43.6574827  40.5378021  24.8688979
  42.4491721  39.9102866  26.4096839  42.7591721  40.7942866  27.4676839
  43.3084792  41.7151574  27.2718303  42.3541721  40.4802866  28.7826839
  42.5542234  41.1577529  29.6128162  41.6691721  39.2462866  29.0156839
  41.3190579  39.0036721  30.0190075  41.4471721  38.3492866  27.9586839
  40.9210700  37.4189609  28.1727183  41.8891721  38.6282866  26.6356839
  41.7883452  37.8726176  25.8566472  42.0801721  41.6972866  22.9516839
  41.2991721  41.4732866  22.0196839  43.3541721  42.1192866  22.7406839
  43.8950087  42.1798966  23.5915197  43.9711721  42.5112866  21.5196839
  43.2089380  42.6971417  20.7630095  44.8091721  43.8312866  21.7256839
  45.3403110  44.0646594  20.8029012  44.1320603  44.6493593  21.9714007
  45.7771721  43.6532866  22.8156839  46.2808169  44.4622946  22.9316490
  44.8671721  41.4132866  20.9686839  44.8791721  40.2672866  21.5146839
  45.4661721  41.6222866  19.7896839  45.1728483  42.4013453  19.2177328
  46.4051721  40.6382866  19.2066839  46.0262264  39.6206976  19.3016154
  46.5461721  40.9842866  17.6676839  45.6331960  40.5382078  17.2732382
  46.5287957  42.0601816  17.4937638  47.6761721  40.4372866  16.8536839
  49.0251721  40.6832866  16.8506839  49.6011721  39.9202866  15.8966839
  50.6572876  40.0961966  15.6922950  48.7261721  39.0462866  15.3516839
  48.8469987  38.3139087  14.6667581  47.4721721  39.3872866  15.9906839
  46.5676497  38.8293749  15.7484549  47.7501721  40.4802866  19.9646839
  48.4201721  41.5082866  20.1576839  48.2501721  39.2792866  20.3186839
  49.6501721  39.0052866  20.5696839  49.7915803  38.9300105  21.6478478
  50.2325963  39.8424605  20.1849488  49.9581721  37.7102866  19.8516839
  50.8213715  37.2066037  20.2867579  50.1317504  37.8742600  18.7881593
  48.7001721  36.9292866  20.0736839  48.7295485  36.2488746  20.9247277
  48.5149786  36.3617952  19.1616771  47.5631721  37.9972866  20.2816839
  47.0544085  37.9065801  19.3219808  46.5331721  37.8712866  21.4226839
  46.8531721  38.0232866  22.6046839  45.3521721  37.2972866  21.1626839
  45.1663556  36.9711378  20.2250281  44.2511721  37.2422866  22.1586839
  44.3021020  38.2157785  22.6463508  42.8531721  37.0952866  21.4846839
  42.6698958  36.0528712  21.2241458  41.7951721  37.5642866  22.4766839
  41.9775308  38.6068291  22.7373565  40.8070376  37.4704171  22.0262643
  41.8432997  36.9514723  23.3768188  42.6931721  38.0072866  20.3666839
  41.8233193  37.8880524  19.9784319  44.4921721  36.1702866  23.1866839
  44.2271721  36.4522866  24.3476839  45.1661721  34.9912866  22.9726839
  45.3146021  34.7978644  21.9925534  45.6141721  33.9772866  23.9686839
  44.7821070  33.6510335  24.5926437  46.1781721  32.7242866  23.1816839
  46.1750788  31.8058598  23.7686948  45.3719418  32.6892828  22.4489715
  47.5201721  32.7342866  22.3716839  47.6721721  33.2092866  21.1146839
  46.7472685  33.5601415  20.6569134  48.9811721  33.1492866  20.6706839
  49.3245459  33.3835126  19.7501774  49.7661721  32.7402866  21.7476839
  51.1551721  32.6002866  21.8646839  51.7798809  32.7890354  20.9916366
  51.6571721  32.2182866  23.1256839  52.7394146  32.2157217  23.2554709
  50.8361721  31.8442866  24.2126839  51.1729812  31.4335452  25.1644983
  49.4071721  32.0352866  24.0186839  48.7670007  31.7295175  24.8462022
  48.9051721  32.5032866  22.7996839  46.6541721  34.5652866  24.9476839
  46.6101721  34.2542866  26.1006839  47.5081721  35.4362866  24.4376839
  47.3546621  35.6843015  23.4707182  48.7511721  35.9372866  25.1116839
  49.2877269  35.1346877  25.6176910  49.6491721  36.5052866  24.0036839
  49.8972575  35.7689708  23.2392286  49.0348221  37.2913079  23.5645431
  50.9081721  37.1022866  24.5476839  52.0881721  36.3242866  24.6576839
  52.0718334  35.2718601  24.3744332  53.3051721  36.9202866  25.1416839
  54.2434583  36.3659004  25.1610964  53.2641721  38.2762866  25.6046839
  54.2621721  38.9082866  26.2906839  55.0256510  38.3468941  26.4441052
  52.1251721  39.0492866  25.3536839  52.1595723  40.1164904  25.5727573
  50.9521721  38.4762866  24.8296839  50.0776554  39.0994893  24.6427643
  48.3801721  36.8532866  26.2416839  48.6811721  36.5952866  27.4046839
  47.5921721  37.9382866  25.9706839  47.2937143  38.0993677  25.0193295
  47.2181721  38.9022866  26.9776839  48.0725448  39.1278957  27.6158431
  46.7261721  40.2652866  26.2756839  45.8028378  40.1459052  25.7088497
  46.5696026  40.9884137  27.0761046  47.7331721  40.8742866  25.3356839
  47.5651721  41.0142866  23.9856839  46.6114513  40.7090591  23.5551580
  48.7071721  41.5402866  23.4456839  48.7888702  41.6923083  22.4505385
  49.6141721  41.9082866  24.3696839  50.8291721  42.6242866  24.2556839
  51.1237437  42.9554654  23.2598692  51.5681721  42.8622866  25.3996839
  52.5342038  43.3661551  25.3680698  51.0421721  42.4282866  26.6816839
  51.5936601  42.5872732  27.6083359  49.8041721  41.7902866  26.7576839
  49.4899187  41.5112938  27.7634217  49.0411721  41.5152866  25.6166839
  46.1381721  38.4432866  27.9516839  46.0801721  38.9612866  29.0816839
  45.4041721  37.4342866  27.5006839  45.4423585  37.1328825  26.5374619
  44.4611721  36.7402866  28.4206839  43.8045347  37.4968846  28.8502023
  43.6171721  35.6822866  27.7796839  43.0206515  36.1681798  27.0075634
  44.2945194  34.9645584  27.3169022  42.6951721  34.9562866  28.7516839
  43.2923445  34.4938121  29.5375613  42.0494246  35.7185126  29.1877125
  41.8381721  33.8922866  28.0716839  41.2411721  34.1722866  27.0406839
  41.7641721  32.7032866  28.5436839  45.2561721  36.1162866  29.5256839
  45.0331721  36.4942866  30.6646839  46.2721721  35.3032866  29.2186839
  46.2775169  35.1102344  28.2273204  47.2281721  34.6102866  30.0586839
  46.7111814  34.0130607  30.8097771  48.0931721  33.6622866  29.1786839
  48.2874671  34.1698007  28.2338145  49.0397309  33.4224125  29.6630258
  47.3321721  32.3302866  28.8826839  47.2151721  31.4862866  29.7586839
  46.8681721  32.1192866  27.6836839  46.3744997  31.2619810  27.4801787
  47.0043163  32.8140108  26.9633202  48.0021721  35.6332866  30.8516839
  48.3041721  35.4212866  32.0436839  48.4761721  36.7182866  30.2276839
  48.3284955  36.8099438  29.2327518  49.3221721  37.7202866  30.9046839
  50.1834227  37.2163096  31.3432655  49.8371721  38.8282866  29.9206839
  50.3172745  38.2193639  29.1546460  48.9239573  39.2655419  29.5170176
  50.8201721  39.9822866  30.3686839  51.3612722  39.6288148  31.2463907
  51.8341721  40.3932866  29.2666839  51.2937870  40.7473290  28.3887677
  52.4770973  41.1892643  29.6424066  52.4443805  39.5321606  28.9942721
  49.9851721  41.1532866  30.7626839  49.3284150  40.8714125  31.5856763
  50.6321299  41.9716212  31.0787148  49.3837589  41.4739868  29.9120650
  48.5231721  38.2732866  32.1126839  49.1471721  38.4482866  33.1116839
  47.1821721  38.3742866  31.9796839  46.8415216  38.2145781  31.0423741
  46.2201721  38.7932866  33.0086839  46.5820848  39.6614174  33.5595626
  44.8611721  39.1922866  32.2596839  44.9553816  39.8767147  31.4166050
  44.4354228  38.2496053  31.9158970  43.9511721  39.8052866  33.3096839
  43.9407369  39.1945107  34.2124268  44.5211721  41.2212866  33.6456839
  44.5314870  41.8328333  32.7434627  43.8933223  41.6968414  34.3991778
  45.5367882  41.1230992  34.0290684  42.5981721  40.0502866  32.6656839
  42.1859426  39.1044809  32.3140908  41.9213984  40.4913471  33.3974928
  42.7144927  40.7311639  31.8224908  46.0511721  37.7152866  34.0866839
  46.2081721  38.0672866  35.2706839  45.8891721  36.4642866  33.6956839
  45.9174371  36.3013437  32.6993155  45.7361721  35.3102866  34.5836839
  44.8677886  35.4910671  35.2171881  45.5421721  33.9512866  33.8496839
  46.1821618  33.9575912  32.9673729  45.8654365  33.1605883  34.5267337
  44.0351721  33.6892866  33.4096839  43.4245659  33.6271615  34.3104621
  43.7060348  34.5349698  32.8058705  43.8861721  32.4012866  32.6046839
  44.4047304  32.5400221  31.6560276  44.3662128  31.6002395  33.1668084
  42.3861721  32.0222866  32.3306839  42.0445678  31.3495162  33.1173140
  41.7857891  32.9319179  32.3451902  42.2461721  31.3762866  31.0536839
  42.8020849  30.5331505  31.0401852  41.2758452  31.1423020  30.8993567
  42.5622569  31.9996835  30.3245982  47.0461721  35.1202866  35.4246839
  46.9971721  34.9272866  36.6536839  48.1951721  35.4082866  34.9176839
  48.2352400  35.4315143  33.9087466  49.4441721  35.5172866  35.6616839
  49.5094861  34.7862696  36.4675669  50.7601721  35.5102866  34.8526839
  50.6083165  36.2078107  34.0289725  52.0411721  35.8942866  35.6216839
  52.1939564  35.1968843  36.4453268  52.8966139  35.8524896  34.9474635
  51.9393571  36.9051961  36.0163925  50.8481721  34.1802866  34.1286839
  51.3362326  33.4856157  34.8122993  49.8233273  33.8544829  33.9507950
  51.5991721  34.2102866  32.8226839  52.6243065  34.5355759  32.9998459
  51.6058339  33.2125737  32.3837947  51.1114020  34.9044454  32.1383421
  49.4681721  36.7172866  36.6706839  49.7541721  36.5402866  37.8566839
  49.0421721  37.9112866  36.2196839  48.8991755  38.0462324  35.2290069
  48.9841721  39.0972866  37.1056839  49.9408173  39.2720816  37.5980009
  48.6591721  40.3032866  36.2296839  47.7065224  40.1794790  35.7146797
  48.6410757  41.2263188  36.8091528  49.8811721  40.5432866  34.9566839
  49.3107625  41.6167363  34.4170202  48.0771721  38.8582866  38.3426839
  48.5101721  39.0572866  39.4836839  46.8481721  38.3582866  38.2106839
  46.5151110  38.2962863  37.2591979  45.8961721  37.9252866  39.3506839
  45.7564467  38.7605264  40.0369422  44.5411721  37.5712866  38.7276839
  44.6807630  36.7410713  38.0353284  43.4901721  37.1572866  39.8456839
  43.3496998  37.9872224  40.5381976  42.5376672  36.9111708  39.3763632
  43.8613172  36.2891279  40.3903429  43.8561721  38.7082866  37.9816839
  44.4951619  39.0448736  37.1652874  42.9060167  38.3583501  37.5781389
  43.6762852  39.5367190  38.6668418  46.3451721  36.7492866  40.2226839
  46.1821721  36.8062866  41.4196839  47.0471721  35.7862866  39.6406839
  47.0303457  35.7294257  38.6324265  47.7191721  34.7312866  40.3786839
  47.0166213  34.2060662  41.0257272  48.3041721  33.7332866  39.3816839
  47.5787472  33.3768528  38.6503750  49.0631898  34.3317437  38.8778571
  49.0571721  32.4242866  39.9626839  48.3381721  31.5052866  40.6886839
  47.2979466  31.6959111  40.9526784  48.9551721  30.3142866  41.0896839
  48.3816926  29.5440817  41.6054419  50.3751721  30.1062866  40.8136839
  50.9156634  29.2799085  41.2752771  51.0451721  30.9862866  39.9416839
  52.0390215  30.7739301  39.5476429  50.3881721  32.1702866  39.5836839
  50.9086733  32.9258964  38.9952688  48.7361721  35.3352866  41.3636839
  48.6541721  35.1392866  42.6086839  49.6281721  36.1792866  40.8826839
  49.5960752  36.3740198  39.8921547  50.7411721  36.7092866  41.6536839
  51.0552828  36.0530962  42.4653783  51.9501721  37.0572866  40.7826839
  51.6342948  37.7508515  40.0033960  53.0471721  37.6962866  41.6136839
  53.3639128  37.0030903  42.3929495  53.8963773  37.9350464  40.9734144
  52.6703968  38.6104122  42.0725019  52.4781721  35.8562866  39.9436839
  52.8476502  35.1254353  40.6630191  51.6116082  35.4476808  39.4238689
  53.5871721  36.1762866  38.9206839  54.4542993  36.5845304  39.4398442
  53.8738253  35.2640261  38.3975110  53.2182576  36.9067782  38.2006950
  50.2671721  37.8892866  42.5516839  50.5771721  37.9002866  43.6966839
  49.5241721  38.8782866  42.0186839  49.2821267  38.8144197  41.0401982
  49.2661721  40.1262866  42.7106839  49.9581799  40.2655839  43.5412383
  49.4691721  41.2712866  41.7046839  48.7535065  41.1301732  40.8947402
  49.3057107  42.2443526  42.1678503  50.8691721  41.3212866  41.0536839
  52.0251721  41.5712866  41.8086839  51.9481781  41.6081152  42.8953372
  53.2971721  41.7772866  41.1706839  54.1928594  42.0588407  41.7243737
  53.3581721  41.6022866  39.7816839  54.3169547  41.7638504  39.2890044
  52.2291721  41.2292866  39.0226839  52.3233690  40.9956099  37.9622018
  50.9661721  41.1602866  39.6516839  50.0700419  40.9834348  39.0568949
  47.9421721  40.1812866  43.5466839  47.6091721  41.2162866  44.1286839
  47.1791721  39.0552866  43.5766839  47.2724450  38.4369548  42.7835476
  46.0871721  38.8172866  44.5146839  46.3470003  39.3560229  45.4259203
  44.7751721  39.4722866  43.8926839  44.4971978  38.9377443  42.9843367
  43.9603782  39.4100475  44.6140280  44.9688657  40.5179196  43.6534480
  46.0491721  37.3792866  44.9676839  45.0831721  37.1172866  45.6966839
  47.1321721  36.5732866  44.8336839  47.7676709  36.6294347  44.0506845
  47.3291721  35.4712866  45.8316839  46.9074761  35.7683080  46.7919182
  46.6381721  34.1862866  45.3706839  45.5840324  34.3681301  45.1613478
  47.1379511  33.8591228  44.4589357  46.6931721  33.0252866  46.3336839
  45.9721721  33.0952866  47.5076839  45.3792128  33.9906840  47.6941314
  45.9871721  32.0512866  48.4526839  45.4442149  32.1880155  49.3878862
  46.6761721  30.8622866  48.2136839  46.6657585  30.0372931  48.9259881
  47.4181721  30.7422866  46.9806839  47.9798584  29.8452175  46.7201542
  47.3971721  31.8862866  46.0636839  47.9563847  31.8458352  45.1289407
  48.8561721  35.1912866  46.1736839  49.2331721  35.4142866  47.2756839
  49.6411721  34.8592866  45.2106839  49.3088755  34.9498948  44.2612270
  51.0141721  34.2372866  45.4396839  50.9667820  33.4685933  46.2110230
  51.5611721  33.6252866  44.1396839  51.3840782  34.3616963  43.3558224
  53.0451721  33.2472866  44.1586839  53.2229715  32.5105131  44.9420438
  53.3255934  32.8255101  43.1935056  53.6446464  34.1364230  44.3540456
  50.7311721  32.4012866  43.8416839  49.7061412  32.7155895  44.0382188
  50.8623475  32.2399109  42.7717071  51.0301721  31.0432866  44.6246839
  50.8987406  31.2037677  45.6947640  50.3413475  30.2691251  44.2866105
  52.0549484  30.7280902  44.4282539  52.0511721  35.1762866  46.0306839
  52.9031721  34.7152866  46.8206839  52.0591721  36.4802866  45.8106839
  51.7153893  36.7373675  44.8964508  52.8041721  37.4332866  46.5376839
  53.6197244  36.9027935  47.0291621  53.3821721  38.5512866  45.7226839
  53.9752219  38.0909650  44.9324338  52.5414883  39.0860790  45.2807021
  54.2511721  39.5292866  46.5056839  54.7852443  40.0887092  45.7376252
  53.5366012  40.1859358  47.0019725  55.4451721  38.9072866  47.7326839
  56.4571721  38.0172866  46.6436839  56.8741248  38.6947917  45.8985420
  57.2677024  37.5481478  47.2014027  55.8672268  37.2482366  46.1450580
  52.0601721  37.7172866  47.8706839  52.7201721  37.5252866  48.8876839
  50.7791721  38.1742866  47.9286839  50.0291721  38.7442866  46.8376839
  49.6619723  37.9314720  46.2111084  50.6975160  39.3781458  46.2548992
  48.9251721  39.5182866  47.4776839  48.0277713  39.5092620  46.8590650
  49.2254419  40.5489896  47.6663394  48.7061721  38.7642866  48.7906839
  48.1770066  37.8169266  48.6877671  48.2015575  39.3829765  49.5327664
  50.1691721  38.5052866  49.2256839  50.6345339  39.4359349  49.5503845
  50.3131721  37.4672866  50.3096839  50.4911721  37.8142866  51.4556839
  50.1851721  36.1332866  49.9686839  49.8678314  35.9226535  49.0332547
  50.3841721  35.0012866  50.9196839  49.7633273  34.9831874  51.8154089
  50.2051721  33.6132866  50.1456839  50.6907895  33.7966321  49.1872167
  50.7081721  32.3372866  50.7196839  50.2226323  32.1530162  51.6780139
  50.4849354  31.5179315  50.0363662  51.7862269  32.4041407  50.8660740
  48.7001721  33.4832866  49.7446839  48.4226202  34.3159126  49.0983086
  48.5449653  32.5442166  49.2134985  48.0818311  33.4989415  50.6421860
  51.7281721  35.1942866  51.5566839  51.7711721  35.1282866  52.8026839
  52.8131721  35.2742866  50.7766839  52.6955703  35.1114189  49.7868641
  54.2191721  35.4582866  51.3126839  54.4273833  34.6393973  52.0012822
  55.2911721  35.4742866  50.2406839  54.8723222  36.1765254  49.5199033
  56.2418825  35.8580542  50.6107815  55.5141721  34.1382866  49.5706839
  54.5520417  33.6401875  49.4510887  56.1681721  34.3192866  48.1996839
  57.1306264  34.8169399  48.3185195  56.3187091  33.3440227  47.7367588
  55.5218431  34.9260513  47.5654948  56.2911721  33.1182866  50.4426839
  55.7368233  32.9286428  51.3618313  56.4105786  32.1852699  49.8919361
  57.2730689  33.5229377  50.6881128  54.2611721  36.7502866  52.2176839
  54.9631721  36.7182866  53.1836839  53.4871721  37.8092866  51.8626839
  52.9860747  37.7614325  50.9870637  53.4531721  39.0732866  52.6186839
  54.4982274  39.2763258  52.8526366  52.8771721  40.2402866  51.7536839
  51.8850068  39.9928971  51.3761831  52.7801721  41.4942866  52.7016839
  53.7720915  41.7425808  53.0792374  52.3815034  42.3418704  52.1442202
  52.1196974  41.2674911  53.5386045  53.8881721  40.6282866  50.6156839
  54.8507701  40.8007076  51.0971162  53.9625598  39.7646901  49.9548004
  53.4851721  41.9032866  49.7726839  53.4110385  42.7674444  50.4328622
  54.2433614  42.0914256  49.0125181  52.5228264  41.7314275  49.2905480
  52.7131721  38.9522866  53.9736839  53.2801721  39.2372866  55.0436839
  51.5661721  38.2902866  53.9526839  51.1011765  38.1428536  53.0682960
  50.8661721  37.9092866  55.1736839  50.8318504  38.7179643  55.9037261
  49.3951721  37.5142866  54.7566839  49.4927523  36.8024617  53.9369987
  48.5471721  36.9192866  55.8346839  48.4487455  37.6307600  56.6545732
  47.5599682  36.6876200  55.4348593  49.0136745  36.0050690  56.2016728
  48.6341721  38.7762866  54.2026839  48.4054938  39.4188133  55.0529583
  49.3133072  39.2964350  53.5271688  47.3181721  38.4272866  53.4476839
  46.6383048  37.9074932  54.1227358  46.8473909  39.3445523  53.0940063
  47.5461183  37.7851127  52.5969471  51.5811721  36.8582866  56.0136839
  51.7151721  37.0492866  57.2126839  52.2341721  35.8872866  55.3456839
  52.1979498  35.8992472  54.3364048  52.9261721  34.7262866  56.0246839
  52.2297838  34.2613337  56.7225100  53.4471721  33.6322866  55.0346839
  54.0777080  34.1247791  54.2944299  54.2441721  32.5382866  55.7326839
  53.6141122  32.0449978  56.4728124  54.5801809  31.8073324  54.9972227
  55.1094761  32.9784017  56.2283131  52.3791721  32.9732866  54.3146839
  52.7507448  32.3143884  53.7235941  54.0661721  35.2462866  56.9096839
  54.1331721  34.9032866  58.1126839  54.9391721  36.1282866  56.4116839
  54.8343881  36.3172189  55.4250613  56.0461721  36.7332866  57.1096839
  56.5876570  35.9683069  57.6661903  56.9971721  37.3482866  56.0656839
  56.3967022  37.9867800  55.4177168  58.1301721  38.1622866  56.6696839
  58.7314002  37.5243121  57.3174602  58.7562076  38.5622826  55.8720729
  57.7164212  38.9847321  57.2532036  57.7211721  36.2302866  55.1996839
  56.9735426  35.6360554  54.6742875  58.3833816  36.7036131  54.4747423
  58.3040222  35.5830550  55.8550295  55.5941721  37.7452866  58.1656839
  56.2001721  37.8602866  59.2886839  54.5721721  38.5662866  57.8106839
  54.0936278  38.5070861  56.9232212  54.2381721  39.6942866  58.7166839
  55.1414454  40.2030653  59.0533452  53.3841721  40.6812866  57.9506839
  52.6327809  40.2227043  57.3078677  52.9144243  41.4456723  58.5696763
  54.5521721  41.5812866  56.8176839  53.6317709  42.3651796  56.2633631
  53.6001721  39.1522866  60.0136839  54.1491721  39.4862866  61.0866839
  52.6381721  38.1872866  59.9146839  52.2087239  37.9217838  59.0399372
  52.1261721  37.5802866  61.1576839  52.0848437  38.3462859  61.9320458
  50.7171721  36.9802866  60.9826839  50.9182787  36.3808277  60.0948188
  50.3947183  36.3288188  61.7949113  49.6451721  37.9652866  60.6826839
  49.2161721  38.8292866  61.6866839  49.8865390  38.9874465  62.5314876
  47.9311721  39.5092866  61.6406839  47.5234099  39.9468587  62.5519261
  47.1341721  39.4962866  60.4166839  46.0511721  40.2302866  60.3136839
  45.8689854  40.7431093  61.1045192  47.6771721  38.7602866  59.3486839
  47.1708342  38.8256142  58.3856394  48.8671721  37.9342866  59.4906839
  49.1755405  37.2782432  58.6766716  53.1021721  36.5232866  61.7066839
  53.0771721  36.3422866  62.9226839  53.9021721  35.8872866  60.8296839
  53.7363351  36.1107694  59.8587808  54.9791721  34.9112866  61.1556839
  54.5356995  33.9906732  61.5350281  55.5579648  34.6923056  60.2583848
  55.8961721  35.4802866  62.2026839  56.0441721  34.8532866  63.2016839
  56.4861721  36.6672866  61.9786839  56.2118187  37.0823554  61.0997371
  57.4491721  37.3902866  62.8196839  58.2794688  36.7382598  63.0909173
  58.0191721  38.6272866  62.0206839  57.2143268  39.2494718  61.6292649
  58.5478931  39.1690094  62.8049610  58.9981721  38.2832866  60.8866839
  58.5476058  37.5586722  60.2084327  59.3011721  39.5232866  60.1496839
  59.7522213  40.2482688  60.8272194  59.9953990  39.3040043  59.3384718
  58.3802827  39.9358735  59.7375733  60.3531721  37.8392866  61.4536839
  60.2147093  36.9566867  62.0781396  61.0302955  37.6008218  60.6334768
  60.7783845  38.6445138  62.0527688  56.7851721  37.8892866  64.1236839
  57.3011721  37.7432866  65.2056839  55.5881721  38.4012866  64.0536839
  55.3109876  38.7374962  63.1425137  54.7201721  38.6902866  65.1916839
  55.2963170  39.3219781  65.8677920  53.3531721  39.4012866  64.8826839
  53.6063884  40.2126884  64.2003292  52.7610290  38.6542142  64.3541488
  52.5391721  39.9592866  66.0626839  52.3450219  39.0593393  66.6462088
  53.2802969  40.5717856  66.5761829  50.9721721  40.9202866  65.8896839
  49.6671721  39.7082866  65.8826839  49.6876309  39.1461917  66.8163486
  48.7048785  40.2103261  65.7824449  49.8091984  39.0255289  65.0449657
  54.3951721  37.5642866  66.1806839  54.4801721  37.7572866  67.3976839
  54.0981721  36.3262866  65.7906839  54.0942340  36.1786934  64.7915342
  53.9091721  35.1432866  66.6816839  53.0412570  35.3227780  67.3161958
  53.7071721  33.8652866  65.9026839  54.2845698  33.9505056  64.9821134
  54.1311721  32.6352866  66.6456839  53.5538459  32.5491323  67.5662123
  53.9568180  31.7567479  66.0244987  55.1917594  32.7038564  66.8876591
  52.1451721  33.7202866  65.5406839  51.6228705  33.4643742  66.4625356
  51.8039748  34.6938079  65.1886326  51.8521721  32.6702866  64.4856839
  52.1926935  31.6963491  64.8372386  50.7792028  32.6332196  64.2973701
  52.3738001  32.9257820  63.5633357  55.2491721  34.9342866  67.4166839
  55.3511721  34.9422866  68.6076839  56.3831721  35.0172866  66.6836839
  56.3175614  35.2157226  65.6955454  57.6971721  34.7352866  67.2456839
  57.6926572  33.7985166  67.8029457  58.6941721  34.6082866  66.0766839
  58.4704834  35.5529933  65.5811115  59.7258186  34.6184481  66.4283975
  58.5051721  33.4622866  65.0926839  57.4799373  33.5173314  64.7266723
  59.4781721  33.4952866  63.8996839  60.5036646  33.4398079  64.2649045
  59.2798489  32.6467938  63.2448339  59.3407424  34.4226525  63.3436210
  58.4931721  32.1192866  65.8386839  57.6745033  32.1100811  66.5582644
  58.3573598  31.3073955  65.1241988  59.4391271  31.9861925  66.3636164
  58.1671721  35.7722866  68.2836839  58.9321721  35.4952866  69.2246839
  57.6471721  36.9682866  68.1136839  57.0651721  37.1277923  67.3037869
  57.8731721  38.0662866  69.0196839  58.9049490  38.0780864  69.3709622
  57.6031721  39.3512866  68.2706839  58.2735447  39.2980703  67.4128565
  56.5724363  39.2437446  67.9328697  57.7771721  40.7372866  68.9846839
  57.4729848  41.5197985  68.2895249  57.1259295  40.7550754  69.8585652
  59.2491721  40.9822866  69.4296839  59.4718749  40.3804034  70.3107282
  59.9278439  40.7081530  68.6219991  59.4611721  42.4082866  69.7636839
  58.6363793  42.9276967  69.4990533  60.4411721  43.0392866  70.2426839
  60.5221721  44.3412866  70.1656839  59.7861082  44.8640925  69.7129324
  61.3204616  44.8186909  70.5592811  61.4431721  42.4402866  70.7846839
  61.4579187  41.4316310  70.8346479  62.2099596  42.9817363  71.1574680
  56.9121721  37.8822866  70.1946839  57.3481721  37.9632866  71.3346839
  55.6461721  37.5872866  70.0166839  55.3004205  37.4559143  69.0768454
  54.7041721  37.4572866  71.1256839  54.6525957  38.3825968  71.6994784
  53.2991721  37.1552866  70.5456839  53.5229876  36.3830871  69.8096718
  52.6722715  36.7357630  71.3325101  52.5391721  38.3402866  69.8466839
  53.2773143  38.8288343  69.2106272  51.3001721  37.9752866  69.0076839
  50.5613417  37.4870801  69.6432016  50.8698100  38.8813340  68.5811076
  51.5912863  37.2987692  68.2041435  52.1961721  39.3112866  70.9476839
  53.1123099  39.6563343  71.4269888  51.6630469  40.1641758  70.5276139
  51.5648081  38.8164103  71.6856377  55.1141721  36.3272866  72.0976839
  54.9761721  36.4632866  73.3256839  55.6271721  35.2122866  71.5626839
  55.5365433  35.0587222  70.5685492  56.2941721  34.1572866  72.3846839
  55.6084008  33.6591469  73.0700113  56.7851721  33.1402866  71.3626839
  57.2912206  33.6733292  70.5577741  57.4901593  32.4684624  71.8523218
  55.5731721  32.2922866  70.7596839  55.0967111  31.7103719  71.5486459
  54.8396064  32.9600676  70.3079628  56.1331721  31.3352866  69.6796839
  56.6204467  31.9264683  68.9043345  56.8633784  30.6713906  70.1424369
  55.0151721  30.5062866  69.0586839  54.0723876  31.0453744  69.1516474
  55.2343388  30.3378089  68.0043214  54.9061721  29.1662866  69.7746839
  54.7026638  29.3221674  70.7516103  54.1640467  28.6218064  69.3588822
  55.7795347  28.6664125  69.6882968  57.4631721  34.6372866  73.2886839
  57.8361721  33.7942866  74.1566839  58.0021721  35.8942866  73.1546839
  57.7335260  36.4089436  72.3282114  59.0491721  36.4482866  74.0036839
  59.1375366  35.8387874  74.9030179  60.4171721  36.4762866  73.2906839
  60.5293043  35.5192674  72.7811352  60.3742983  37.2773797  72.5527735
  61.5221721  36.6852866  74.1496839  62.3319430  36.6897103  73.6340760
  58.7631721  37.8382866  74.6896839  59.5091721  38.1942866  75.6256839
  57.8471721  38.6862866  74.2226839  57.4922394  38.6692858  73.2772565
  57.3941721  39.7992866  75.1376839  58.1669507  40.5633320  75.2222248
  56.1111721  40.4542866  74.5766839  55.3461676  39.7034980  74.3787352
  55.6031721  41.4342866  75.6606839  56.3675097  42.1856976  75.8588522
  54.6945525  41.9244457  75.3110342  55.3890375  40.8841515  76.5769804
  56.2641721  41.2192866  73.2886839  56.6254011  40.5494393  72.5083505
  55.2995162  41.6325630  72.9941652  56.9785087  42.0303866  73.4298964
  57.1601721  39.4312866  76.5926839  56.2361721  38.6532866  76.9146839
  57.9601721  40.0532866  77.4676839  58.6957434  40.6486902  77.1147974
  57.9931721  39.6642866  78.9176839  58.0969802  38.5825746  79.0026671
  59.1681721  40.3252866  79.6356839  59.2097474  39.8466125  80.6140713
  60.0488642  40.0459229  79.0573783  59.1351721  41.8622866  79.8146839
  60.1617151  42.2267292  79.8533114  58.6274464  42.2984741  78.9544181
  58.4051721  42.2632866  81.0926839  58.0983115  43.3013051  80.9644142
  57.5211026  41.6291941  81.1593708  59.1601721  42.1482866  82.3416839
  59.9989332  42.7086993  82.3918532  58.8311721  41.3762866  83.4106839
  57.8391721  40.6002866  83.4186839  57.2475336  40.5335183  82.6028372
  57.6401239  40.0485364  84.2409072  59.5831721  41.4552866  84.4416839
  60.3816188  42.0737765  84.4343817  59.3751778  40.8988248  85.2584993
  56.6031721  39.7392866  79.7026839  56.3231721  38.8362866  80.4826839
  55.7421721  40.7532866  79.5566839  56.0709258  41.5031703  78.9653339
  54.3951721  40.8852866  80.1826839  54.4903647  40.8835492  81.2685175
  53.7371721  42.1842866  79.7556839  54.4696546  42.9877152  79.8336010
  53.4144097  42.0868479  78.7191367  52.5561721  42.5012866  80.6176839
  51.8401483  41.7229537  80.3538495  52.9299732  42.3236897  81.6260659
  51.7591721  44.0572866  80.5656839  50.7491721  43.9572866  79.0996839
  50.0434034  43.1326656  79.1996326  50.2008909  44.8905529  78.9712224
  51.3849196  43.7874226  78.2307347  53.4121721  39.7062866  79.8156839
  52.7531721  39.0532866  80.6326839  53.4571721  39.2662866  78.5696839
  54.0252739  39.7711844  77.9045238  52.6401721  38.2012866  78.0896839
  51.6914905  38.2607139  78.6231356  52.3611721  38.2022866  76.6106839
  53.3636195  38.2765916  76.1891659  51.9375314  37.2273648  76.3695283
  51.4811721  39.2972866  76.0226839  51.6457779  40.2499294  76.5261494
  51.8901721  39.4192866  74.5576839  51.7254063  38.4670985  74.0534133
  51.2922229  40.1930686  74.0762082  52.9454648  39.6849643  74.4954487
  49.9551721  38.9482866  76.2196839  49.7378826  38.8540744  77.2836429
  49.3423108  39.7423655  75.7931386  49.7295735  38.0069670  75.7185635
  53.1991721  36.7672866  78.5226839  52.4711721  35.8582866  78.8736839
  54.5111721  36.5942866  78.5886839  55.0341673  37.4166575  78.3235772
  55.2661721  35.3772866  78.9886839  54.7615052  34.4756259  78.6416704
  56.6781721  35.4402866  78.3346839  57.2766523  36.1336781  78.9255553
  57.1092250  34.4413428  78.4010518  56.6671721  35.8662866  76.9636839
  57.5657826  35.8819596  76.6262621  55.4391721  35.2512866  80.4846839
  56.2891721  34.5112866  80.9996839  54.5571721  35.9462866  81.2446839
  54.0695271  36.6721981  80.7393580  54.2481721  35.7612866  82.6716839
  55.2156367  35.7435497  83.1734777  53.7038354  36.6589959  82.9647963
  53.4571721  34.5502866  83.0896839  53.0701721  33.7322866  82.1986839
  53.0981721  34.5322866  84.3776839  53.5146581  35.2488553  84.9548912
  52.2761721  33.5292866  85.0166839  52.7143088  32.5337229  84.9460559
  52.2051721  33.9332866  86.5076839  51.5867914  33.2345233  87.0710970
  53.2015005  33.9725605  86.9480104  51.6151721  35.2312866  86.5506839
  51.5511028  35.5235918  87.4628531  50.8981721  33.3012866  84.4026839
  50.3811721  34.0862866  83.6896839  50.2661721  32.1932866  84.7556839
  50.8586687  31.6855476  85.3969704  49.0201721  31.5242866  84.2576839
  49.2771798  30.8594193  83.4330641  48.3211721  30.6832866  85.3796839
  48.0325015  31.3909226  86.1568710  47.4261847  30.2554028  84.9280059
  49.1511721  29.5842866  85.9856839  49.7378451  29.0955608  85.2078261
  49.8212844  30.0018560  86.7371408  48.2161721  28.5532866  86.6476839
  47.6941152  29.0859449  87.4425617  47.5017993  28.2568153  85.8796503
  48.8771721  27.3292866  87.2156839  49.3852434  26.7950794  86.4128223
  49.6061866  27.6351802  87.9660613  47.8621721  26.4332866  87.8446839
  47.1868005  26.1493782  87.1494365  48.3214964  25.6163657  88.2211961
  47.3915637  26.9279653  88.5889418  48.0621721  32.4592866  83.5096839
  47.6681721  32.2782866  82.3506839  47.5111721  33.4192866  84.2486839
  47.7745065  33.4526539  85.2231791  46.3971721  34.3102866  83.7816839
  45.5757532  33.7471682  83.3386627  45.8771721  35.0242866  85.0596839
  45.8305091  34.2808797  85.8554652  46.6023167  35.7938932  85.3242046
  44.4821721  35.6712866  84.8756839  44.2243971  35.9876428  85.8864122
  44.6129006  36.5491767  84.2429768  43.3251721  34.7742866  84.2956839
  42.7451721  35.0562866  83.2086839  42.9631721  33.7982866  84.9836839
  46.6921721  35.2222866  82.6156839  45.8331721  35.4142866  81.7506839
  48.0061721  35.6122866  82.4116839  48.6096065  35.5706596  83.2205309
  48.4831721  36.3022866  81.2366839  47.6445871  36.8257277  80.7774630
  49.5761721  37.3122866  81.5446839  50.4505566  36.7908647  81.9341325
  49.8465679  37.8418370  80.6311400  49.0521721  38.3612866  82.6336839
  48.1459206  38.8432513  82.2669155  48.8338337  37.8390839  83.5652067
  50.1251721  39.4182866  82.8826839  50.4044066  39.8227145  81.9097681
  49.6647973  40.2028699  83.4831699  51.4041721  38.8852866  83.6126839
  51.0724754  38.1445439  84.3402677  52.0247993  38.4008379  82.8588733
  52.1851721  39.9252866  84.2946839  51.6103967  40.3740202  84.9935195
  52.9892311  39.5055062  84.7389514  52.4929870  40.6115491  83.6205972
  48.7401721  35.2702866  80.1466839  48.5631721  35.4992866  78.9516839
  49.1961721  34.0402866  80.5626839  49.3669771  33.9311564  81.5521361
  49.5621721  32.8772866  79.6276839  50.1884022  33.2342244  78.8100468
  50.3401721  31.8082866  80.4116839  51.1160218  32.2399106  81.0440265
  49.5242659  31.4440571  81.0359707  50.9191721  30.6582866  79.6176839
  51.2671721  30.8182866  78.4616839  51.1721721  29.6372866  80.2636839
  48.3551721  32.2672866  78.9076839  48.3651721  31.8662866  77.7406839
  47.1771721  32.3782866  79.5876839  47.2342857  32.4500399  80.5935113
  45.8821721  32.1932866  78.9896839  45.8884123  31.2908124  78.3784553
  44.7921721  32.0502866  80.0666839  45.1320473  31.3108145  80.7917805
  44.6786507  33.0159614  80.5593148  43.3971721  31.5972866  79.4646839
  43.1199887  32.2698511  78.6529406  43.4840092  30.5810461  79.0802148
  42.3301721  31.6402866  80.5436839  41.4132757  31.1964654  80.1558404
  42.6729150  31.0692323  81.4065417  42.0381721  33.0352866  80.9796839
  42.5519561  33.3800035  81.7779919  41.2351721  33.8502866  80.3586839
  41.2131721  35.0722866  80.7236839  41.8103268  35.3819355  81.4770921
  40.5987017  35.7243906  80.2575442  40.4891721  33.5452866  79.3216839
  40.5127118  32.6086469  78.9445208  39.8954158  34.2487937  78.9061964
  45.5221721  33.2302866  77.8786839  45.3571721  32.9302866  76.7006839
  45.6711721  34.4732866  78.2166839  45.7527423  34.7209470  79.1924451
  45.5281721  35.6112866  77.1816839  44.5882450  35.5209870  76.6371822
  45.5381721  36.9922866  77.9446839  45.0413635  37.1618858  78.8999412
  46.6030015  37.2013148  78.0473764  44.9431721  37.9622866  76.8996839
  43.8291721  37.7982866  76.3866839  45.5211721  39.1702866  76.6856839
  45.1281386  39.8006168  76.0013533  46.3420692  39.4341776  77.2116025
  46.5501721  35.5182866  75.9986839  46.1321721  35.4372866  74.7986839
  47.8621721  35.2322866  76.1616839  48.2929145  35.3331463  77.0696419
  48.7111721  34.8832866  75.0286839  48.7784811  35.6801528  74.2880267
  50.1131721  34.6722866  75.6586839  50.4273513  35.6286516  76.0767231
  50.0545835  33.9300454  76.4547652  51.1241721  34.2182866  74.6156839
  50.7626384  33.2811706  74.1923544  51.3351721  35.2512866  73.4786839
  51.6971688  36.1885821  73.9012172  52.0674204  34.8665592  72.7688262
  50.3894598  35.4259007  72.9656163  52.4031721  33.9752866  75.3536839
  52.2466271  33.2054820  76.1093253  53.1704022  33.6454190  74.6532221
  52.7253877  34.8977149  75.8368011  48.2701721  33.7022866  74.1646839
  48.2931721  33.8852866  72.9556839  47.8501721  32.5992866  74.8126839
  47.8173516  32.4933393  75.8165750  47.3911721  31.4752866  73.9756839
  48.1825642  31.1364524  73.3071115  46.9971721  30.2882866  74.9306839
  47.7263541  30.2793514  75.7408154  46.0109834  30.5204148  75.3327390
  46.9641721  28.9412866  74.2736839  46.2210659  29.0139086  73.4795680
  47.9515495  28.7983204  73.8346524  46.6221721  27.7212866  75.1996839
  45.7087632  27.9658016  75.7418974  46.4425653  26.8600788  74.5561297
  47.6601721  27.3752866  76.1646839  47.4463954  27.8677297  77.0201947
  48.8291721  26.7192866  76.0776839  49.3671721  26.2532866  74.9256839
  48.8800463  26.3923490  74.0519161  50.2531404  25.7687557  74.9454215
  49.3991721  26.3342866  77.2016839  48.9538442  26.5366944  78.0853208
  50.2787334  25.8385830  77.1743249  46.1061721  31.8782866  73.1006839
  46.0481721  31.4902866  71.9286839  45.2841721  32.7282866  73.6456839
  45.2695970  32.7108498  74.6554279  44.1791721  33.4262866  72.9366839
  43.5905973  32.7078655  72.3661141  43.2481721  34.1292866  73.9586839
  43.1282733  33.5346562  74.8642987  43.6195981  35.1197689  74.2215294
  41.8661721  34.2652866  73.2376839  42.0456093  34.6497068  72.2336300
  41.4206006  33.2726943  73.1718928  40.9141721  35.2022866  73.9786839
  40.0264025  35.3631680  73.3670621  40.6253752  34.7411342  74.9231595
  41.5471721  36.5322866  74.2666839  41.8360425  36.6711430  75.2244794
  41.7021721  37.5542866  73.3896839  41.1741721  37.6952866  72.2036839
  40.5610915  36.9803024  71.8389515  41.3813496  38.5186643  71.6566681
  42.5441721  38.4882866  73.7766839  43.0132115  38.4035671  74.6671471
  42.7175797  39.2856509  73.1815043  44.5931721  34.1672866  71.7416839
  44.1331721  33.7902866  70.6806839  45.4721721  35.1812866  71.8266839
  45.9183063  35.4005019  72.7058928  45.8351721  36.0012866  70.6186839
  44.9374549  36.4661818  70.2111603  46.8451721  37.1112866  71.0516839
  47.7089436  36.6551595  71.5353649  47.3281721  37.9212866  69.7406839
  46.4649450  38.3781118  69.2566897  48.0339455  38.6988414  70.0329051
  47.8120833  37.2343846  69.0463534  46.1651721  38.1332866  72.0586839
  45.3344209  38.5813376  71.5135201  45.7772319  37.5300528  72.8794828
  47.0501721  39.2232866  72.6106839  47.4381432  39.8272674  71.7904488
  46.4717417  39.8552540  73.2845791  47.8809559  38.7759821  73.1564099
  46.5001721  35.1462866  69.5526839  46.1771721  35.2442866  68.4026839
  47.3591721  34.2182866  69.9816839  47.6133166  34.3108333  70.9547949
  48.0591721  33.2032866  69.1686839  48.6899339  33.7618510  68.4771316
  48.9711721  32.1702866  69.9686839  48.3064437  31.5174155  70.5343654
  49.8511721  31.3412866  69.0846839  50.5165493  31.9934830  68.5189873
  50.4437136  30.6608311  69.6962180  49.2346137  30.7653556  68.3945682
  49.8371721  32.9072866  70.8376839  50.3938110  32.2973199  71.3272696
  47.1121721  32.4202866  68.2256839  47.2771721  32.4302866  66.9706839
  46.0551721  31.7502866  68.8186839  46.0547152  31.7114426  69.8279362
  44.9441721  31.0512866  68.0756839  45.3354645  30.2084102  67.5059921
  43.9421721  30.5352866  69.0696839  44.5036892  29.8863131  69.7417191
  43.5949658  31.4114019  69.6173788  42.7221721  29.7622866  68.5046839
  42.1086623  30.4356431  67.9061042  43.0689876  28.9375323  67.8821076
  41.9141721  29.2262866  69.6316839  41.1607935  28.5608416  69.2101362
  42.5835357  28.6552031  70.2750466  41.2211721  30.2742866  70.4646839
  41.4891854  31.2448858  70.3859092  40.2751721  29.9462866  71.3396839
  39.6291721  30.8632866  71.9996839  39.8464264  31.8379087  71.8479852
  38.9136250  30.5959964  72.6604773  39.9961721  28.6782866  71.5816839
  40.5047708  27.9514304  71.0988718  39.2754986  28.4413066  72.2484438
  44.2991721  31.9672866  67.1156839  44.2941721  31.7622866  65.9016839
  44.0481721  33.2212866  67.5706839  44.1024575  33.4388460  68.5554785
  43.4211721  34.2052866  66.6716839  42.6705527  33.6480333  66.1112034
  42.7571721  35.4512866  67.2766839  43.5330460  36.1164646  67.6557055
  42.1894440  35.9621111  66.4989673  41.7991721  35.0522866  68.4426839
  42.4454650  34.7756630  69.2756820  41.2479494  35.9577871  68.6963067
  40.6421721  33.7282866  68.1326839  39.2511721  34.8182866  67.7016839
  39.5208489  35.4289037  66.8399878  38.3770944  34.2140220  67.4588814
  39.0208554  35.4660277  68.5475485  44.3001721  34.5622866  65.5336839
  43.7941721  34.6132866  64.4296839  45.6151721  34.8712866  65.6346839
  45.9728684  35.0278924  66.5661491  46.5031721  35.1192866  64.5006839
  46.1041541  35.8992439  63.8521853  47.9311721  35.5652866  65.0066839
  48.2567986  34.8416628  65.7539691  48.9611721  35.6432866  63.8966839
  48.6364410  36.3671038  63.1491952  49.9198681  35.9550644  64.3111682
  49.0686944  34.6638415  63.4306069  47.7601721  36.9232866  65.6626839
  47.0633994  36.8393404  66.4966880  48.7247122  37.2741448  66.0296454
  47.3694241  37.6329987  64.9334888  46.6051721  33.9872866  63.5296839
  46.7201721  34.2072866  62.3056839  46.6821721  32.7622866  63.9896839
  46.7535517  32.7309873  64.9966718  46.7651721  31.4872866  63.2396839
  47.5230269  31.5651022  62.4601327  47.1461721  30.3372866  64.1806839
  46.5191260  30.4047479  65.0697066  46.9300926  29.4077757  63.6539779
  48.6601721  30.3592866  64.6046839  48.9286849  31.3940497  64.8174444
  48.9471721  29.5112866  65.8076839  48.6793284  28.4762302  65.5955124
  50.0085696  29.5692613  66.0488790  48.3625284  29.8710975  66.6543410
  49.5221721  29.8262866  63.4766839  49.3887495  30.4483738  62.5916385
  50.5692816  29.8450584  63.7788603  49.2289720  28.8017625  63.2475925
  45.4771721  31.2142866  62.5076839  45.6481721  30.8742866  61.3506839
  44.3211721  31.5242866  63.0056839  44.2803508  31.8649318  63.9556280
  43.0831721  31.4832866  62.2306839  42.8763902  30.5354191  61.7338061
  41.8611721  31.8502866  63.1356839  42.2064222  32.6998470  63.7248773
  40.4931721  32.2012866  62.4686839  40.1470321  31.3519761  61.8796512
  39.7594795  32.4298171  63.2417101  40.6169595  33.0673689  61.8185455
  41.6271721  30.7892866  64.1616839  42.5126212  30.6884581  64.7893109
  40.7730253  31.0637922  64.7806989  41.4249496  29.8406094  63.6644732
  43.1081721  32.5482866  61.1306839  42.6231721  32.3032866  60.0036839
  43.6381721  33.6952866  61.4756839  43.9989479  33.7510321  62.4174018
  43.6631721  34.9062866  60.6486839  42.7138317  35.0577557  60.1349631
  43.9731721  36.1352866  61.4576839  44.6845950  35.8364450  62.2275348
  44.5461721  37.2832866  60.6616839  43.8350692  37.5830091  59.8918787
  44.7388073  38.1260336  61.3255888  45.4788752  36.9707302  60.1921362
  42.8441721  36.7952866  62.2766839  42.4559829  36.0809566  63.0027305
  43.2362282  37.6675141  62.7997623  42.0416491  37.1042701  61.6069177
  44.6381721  34.7362866  59.5116839  44.3041721  35.2112866  58.4036839
  45.7381721  34.0152866  59.6196839  45.9586445  33.6558624  60.5374559
  46.6811721  33.7142866  58.4926839  46.7878684  34.6390214  57.9256031
  48.1331721  33.2292866  58.9576839  48.0621853  32.3667273  59.6202935
  48.8991721  32.8292866  57.6686839  48.9709699  33.6915185  57.0057343
  49.9008854  32.4892374  57.9314340  48.3644497  32.0257506  57.1622223
  48.9821721  34.2952866  59.6646839  48.4660775  34.6347140  60.5627582
  49.9466994  33.8686065  59.9398764  49.1373682  35.1404584  58.9940874
  46.1471721  32.5992866  57.5366839  46.0521721  32.8342866  56.3416839
  45.6051721  31.4582866  58.0546839  45.6031208  31.3510248  59.0589697
  45.2651721  30.2822866  57.2226839  45.9314226  30.5050062  56.3892539
  45.7081721  28.9462866  57.8666839  45.0448119  28.7051578  58.6972922
  45.6620660  28.1508869  57.1228333  46.7300405  29.0406704  58.2340746
  43.8271721  30.1672866  56.6436839  43.6331721  29.4412866  55.6946839
  42.7841721  30.9142866  57.0506839  42.9121363  31.4786751  57.8784460
  41.4761721  30.9292866  56.3966839  41.2192498  29.9003678  56.1448583
  40.3891721  31.4932866  57.3356839  40.8040848  32.3448425  57.8749420
  39.1461721  31.9422866  56.5466839  38.7304019  31.0911052  56.0074936
  38.3992384  32.3345665  57.2368339  39.4273873  32.7196030  55.8361919
  39.8921721  30.4192866  58.3316839  40.7278403  30.0720272  58.9392789
  39.1272600  30.8490414  58.9784604  39.4706869  29.5788698  57.7801854
  41.6041721  31.7972866  55.0976839  41.0221721  31.4412866  54.0366839
  42.3631721  32.9012866  55.1826839  42.7410834  33.2386879  56.0564360
  42.6371721  33.6582866  53.9776839  41.7061519  34.0391608  53.5578799
  43.5241721  34.8082866  54.2856839  42.7322888  35.3979333  54.7475679
  44.3523620  34.7011159  54.9861951  44.0571721  35.6392866  53.0936839
  43.1921721  36.5042866  52.3906839  42.2061444  36.7629466  52.7766168
  43.6331721  37.0412866  51.1526839  43.0058472  37.7746944  50.6460507
  44.8561721  36.6432866  50.5776839  45.1512491  37.0189283  49.5979274
  45.7061721  35.7482866  51.2806839  46.6793442  35.4669016  50.8783671
  45.2701721  35.2162866  52.5296839  45.8800161  34.4779018  53.0502395
  43.3131721  32.8332866  52.8596839  42.8481721  32.8712866  51.7156839
  44.2771721  31.9982866  53.2196839  44.7537942  32.1787653  54.0916691
  44.8101721  30.9332866  52.3336839  45.0814318  31.3377971  51.3585487
  46.0451721  30.2512866  52.9706839  45.7686852  29.9250384  53.9732893
  46.5411721  29.0332866  52.1496839  46.8183000  29.3588502  51.1470328
  47.4087032  28.5924333  52.6407428  45.7457312  28.2910216  52.0832343
  47.1841721  31.2542866  53.1316839  47.5402525  31.4884162  52.1284437
  46.7533772  32.1487108  53.5817068  48.3201721  30.7812866  53.9616839
  48.7518054  29.8870908  53.5120102  49.0791960  31.5615387  54.0181523
  47.9649293  30.5473832  54.9652732  43.7071721  29.9462866  51.8886839
  43.5751721  29.8382866  50.6526839  42.8631721  29.3272866  52.7456839
  43.0001243  29.6024876  53.7077691  41.8421721  28.2942866  52.4486839
  42.0986750  27.5236720  51.7217324  41.4631721  27.6162866  53.7666839
  41.2975233  28.4516642  54.4469808  40.2901721  26.6712866  53.8366839
  40.4553180  25.8353510  53.1569491  40.1855617  26.2959470  54.8546610
  39.3805306  27.1985016  53.5491107  42.6891721  26.9502866  54.3386839
  43.4605811  27.6994906  54.5167952  42.4329586  26.4626360  55.2792428
  43.0614562  26.2066301  53.6340702  40.5481721  28.7322866  51.7526839
  39.9331721  27.9322866  51.0396839  40.2421721  30.0312866  51.8286839
  40.5441488  30.5228073  52.6577297  39.3841721  30.7382866  50.8766839
  38.4873304  30.1494919  50.6840839  38.9721721  32.0762866  51.4216839
  39.8176469  32.7342081  51.6227086  38.2532481  32.5932695  50.7860921
  38.1551721  31.8252866  52.9916839  37.9123160  33.1111785  53.2291736
  39.8901721  30.9052866  49.4466839  39.1541721  30.7452866  48.4976839
  41.1521721  31.3482866  49.3036839  41.7633240  31.5523718  50.0814641
  41.6101721  31.7292866  47.9116839  40.7578047  31.8881526  47.2511306
  42.3841721  33.0042866  48.0076839  43.1539165  32.8777403  48.7689847
  42.8538628  33.2370647  47.0520139  41.6141721  34.1722866  48.3866839
  41.8441721  34.8522866  49.4946839  42.7165228  34.5423469  50.0700460
  40.8711721  35.8612866  49.6856839  40.8236481  36.4797684  50.4827544
  40.0151721  35.8862866  48.5946839  38.9451721  36.6952866  48.2566839
  38.7089597  37.4605285  48.9960805  38.2571721  36.5252866  47.0816839
  37.3867875  37.1298339  46.8266287  38.6891721  35.5412866  46.1806839
  38.2091239  35.4366029  45.2077016  39.7741721  34.6392866  46.5036839
  40.0149976  33.8440333  45.7982223  40.4691721  34.8252866  47.7216839
  42.3331721  30.6492866  47.1706839  42.5111721  30.8482866  45.9496839
  42.8491721  29.6752866  47.8686839  42.6843591  29.6052963  48.8626846
  43.7131721  28.6872866  47.2416839  44.6247928  29.1402950  46.8520298
  44.0911721  27.6222866  48.2296839  43.1575930  27.3808528  48.7378571
  44.7431721  26.3402866  47.7306839  45.6771050  26.5808931  47.2227690
  44.9486621  25.6836593  48.5760913  44.0712362  25.8371083  47.0354039
  44.9951721  28.0502866  49.2586839  45.1846543  27.3139193  49.8447385
  43.1471721  27.9772866  46.0166839  43.8871721  27.9072866  45.0206839
  41.9361721  27.4202866  46.1046839  40.9011721  27.4562866  47.1096839
  40.1725298  28.2180599  46.8324079  41.3532446  27.7177970  48.0664189
  40.2971721  26.0262866  47.1116839  39.3048719  25.9935549  47.5615372
  40.9441510  25.3022988  47.6070235  40.2381721  25.7702866  45.6416839
  39.3426706  26.2396442  45.2344010  40.2487056  24.7141285  45.3723911
  41.4401721  26.4372866  45.1086839  42.1648570  25.6371795  44.9578237
  41.2481721  27.1892866  43.8186839  41.8581721  26.9282866  42.8026839
  40.5871721  28.3412866  43.9346839  40.1820336  28.5496554  44.8360964
  40.2311721  29.2392866  42.7586839  39.7817436  28.7578613  41.8901548
  39.3161721  30.3952866  43.2396839  38.4708015  29.9366003  43.7525735
  40.0021721  31.4112866  44.1836839  40.8474211  31.8707574  43.6712959
  39.2873723  32.1832818  44.4686142  40.3556822  30.8965864  45.0771118
  38.5551721  31.1242866  42.0466839  37.9223798  31.8848823  42.5040338
  39.3223395  31.6067621  41.4410675  37.6861721  30.2012866  41.1436839
  36.9184349  29.7187858  41.7485577  37.2122467  30.7970956  40.3636162
  38.3183947  29.4406638  40.6855930  41.4211721  29.6282866  42.0206839
  41.4701721  29.4842866  40.8056839  42.5061721  30.0852866  42.7186839
  42.4835589  30.2000921  43.7218826  43.6521721  30.6172866  41.9866839
  43.2714970  31.1227827  41.0991822  44.5521721  31.6422866  42.8096839
  44.8364144  31.1979743  43.7635665  45.4498262  31.9085913  42.2516525
  43.8571721  32.9102866  43.1236839  43.1101721  33.2092866  44.2276839
  42.7731721  34.4992866  44.2306839  42.3184791  34.9343673  45.1206603
  43.0801721  35.0352866  43.0666839  42.8570784  35.9461208  42.6915703
  43.8171721  34.0542866  42.4016839  44.2647740  34.2724909  41.4320754
  44.4931721  29.5192866  41.3356839  45.0321721  29.7562866  40.2126839
  44.7341721  28.3332866  41.8816839  44.5837183  28.2756440  42.8787497
  45.4031721  27.1612866  41.1856839  46.2643440  27.4974872  40.6082314
  45.8731721  26.1412866  42.2776839  45.0309092  25.8920469  42.9231086
  46.3921721  24.8842866  41.6196839  47.2348036  25.1326763  40.9744123
  46.7170009  24.1801284  42.3856788  45.5997017  24.4318460  41.0235402
  46.9861721  26.7562866  43.1496839  47.6677276  27.2164052  42.4342303
  46.4823094  27.5345001  43.7229252  47.7861721  25.8442866  44.1106839
  48.2907215  25.0660493  43.5380789  48.5267219  26.4394425  44.6449824
  47.1053024  25.3841422  44.8267728  44.5291721  26.6722866  40.1036839
  45.0431721  26.2822866  39.0676839  43.2201721  26.6212866  40.3236839
  42.8401463  27.0445087  41.1582873  42.2831721  25.9792866  39.3726839
  42.6143188  24.9725804  39.1177649  40.9131721  25.8872866  40.0456839
  41.0511981  25.5110472  41.0593367  40.5820637  26.9250043  40.0858004
  39.8371721  25.0262866  39.3136839  40.0621721  24.2452866  38.1846839
  41.0194445  24.2640902  37.6637467  39.0231721  23.4192866  37.7176839
  39.1216900  23.0480956  36.6975794  37.8041721  23.3092866  38.3846839
  36.9471721  22.3642866  38.0736839  37.2576241  21.7943323  37.3663146
  37.6091721  24.0152866  39.5866839  36.7735569  23.8186174  40.2583749
  38.5311721  24.9912866  39.9006839  38.2761246  25.7714340  40.6179153
  42.1751721  26.8742866  38.0686839  42.1201721  26.3352866  36.9896839
  42.3611721  28.1982866  38.1556839  42.4998557  28.6311391  39.0576290
  42.3461721  29.0792866  36.9366839  41.5779549  28.9419876  36.1757040
  42.2711721  30.5292866  37.4566839  42.8626746  30.5720488  38.3712305
  42.8011721  31.6132866  36.4356839  42.2098167  31.5714408  35.5209989
  42.7131954  32.6049221  36.8795529  43.8465132  31.4120837  36.2014166
  40.8781721  31.0182866  38.0666839  40.6137676  30.3913742  38.9182549
  40.9675190  32.0544935  38.3928619  40.1013457  30.9431385  37.3057672
  43.6011721  28.8602866  36.0786839  43.4411721  29.0202866  34.8826839
  44.7641721  28.4822866  36.6636839  44.8137953  28.4557973  37.6721160
  45.9671721  28.1352866  35.8986839  46.1201161  28.7071517  34.9834366
  47.1841721  28.2752866  36.7906839  47.0059281  27.6525333  37.6673296
  48.4791721  27.8772866  36.1506839  48.6583425  28.4999571  35.2741680
  49.2932624  28.0107696  36.8631024  48.4293272  26.8311885  35.8485358
  47.3651721  29.6992866  37.4596839  46.5320255  29.8468992  38.1468360
  48.2994755  29.6814534  38.0208066  47.4001721  30.8402866  36.4526839
  46.4659476  30.8590474  35.8914599  47.5262700  31.7863963  36.9790631
  48.2333968  30.6936002  35.7654288  45.8841721  26.6952866  35.3516839
  46.1381721  26.4832866  34.1556839  45.4811721  25.7132866  36.1716839
  45.5616057  25.8697617  37.1662418  45.2071721  24.3442866  35.6996839
  45.9955403  23.9300466  35.0712096  44.9291721  23.3822866  36.8786839
  44.1746625  23.8316653  37.5243420  44.4341721  22.0372866  36.3836839
  45.1883951  21.5870526  35.7382866  44.2473926  21.3825725  37.2348969
  43.5103830  22.1739788  35.8215202  46.1791721  23.3092866  37.7606839
  46.9824786  23.1548697  37.0402986  46.2505965  24.3155129  38.1736085
  46.3011721  22.3052866  38.8676839  46.2303017  21.2987406  38.4554432
  47.2636060  22.4268565  39.3647161  45.4984177  22.4593826  39.5887523
  44.1921721  24.3722866  34.5176839  44.3831721  23.5712866  33.5356839
  43.2081721  25.2622866  34.5156839  43.0117108  25.8451204  35.3168125
  42.2671721  25.2892866  33.3866839  41.9689449  24.2760849  33.1172734
  40.9851721  26.0972866  33.7966839  40.6303589  25.5997515  34.6992722
  41.3613723  27.0878237  34.0524373  39.8181721  26.2332866  32.7906839
  40.1917038  26.5622429  31.8209609  39.3043757  25.2787493  32.6767818
  38.8211721  27.2972866  33.3526839  38.3088396  26.9185391  34.2370847
  39.3419659  28.2215173  33.6030253  37.7961721  27.5722866  32.2476839
  38.2733092  28.2333965  31.5242376  37.5713224  26.6171075  31.7731581
  36.5271721  28.1982866  32.7336839  36.7352552  29.0835921  33.1730418
  35.9049746  28.3481853  31.9523385  36.0846708  27.5856534  33.4037377
  42.8301721  25.7752866  32.0046839  42.3191721  25.3682866  30.9316839
  43.8121721  26.6242866  32.0006839  43.9104409  27.1296566  32.8696165
  44.6651721  26.9892866  30.8976839  43.9651327  27.2104442  30.0919958
  45.5251721  28.2812866  31.1876839  46.2372261  28.0727415  31.9861751
  46.0654444  28.5687675  30.2857078  44.8673909  29.0955497  31.4916555
  45.5861721  25.8432866  30.4186839  45.7041721  25.6022866  29.2536839
  46.2191721  25.1122866  31.3786839  46.0968962  25.4045100  32.3377217
  47.1551721  24.0542866  31.1016839  47.7774949  24.3031990  30.2421165
  48.0681721  23.8722866  32.3366839  47.4916546  23.7718831  33.2562739
  48.5999513  22.9416944  32.1384190  49.0661721  25.0012866  32.4876839
  48.5625560  25.9679567  32.4831533  49.7491721  24.7992866  33.8096839
  50.2534345  23.8329575  33.8148033  50.4814227  25.5914759  33.9657161
  49.0091290  24.8265925  34.6094907  50.2031721  24.9392866  31.4196839
  49.7692584  25.0059762  30.4220012  50.8914430  25.7706069  31.5722981
  50.7437931  23.9979267  31.5180175  46.4951721  22.7552866  30.6386839
  47.1231721  21.9892866  29.9236839  45.2641721  22.5082866  31.0016839
  44.8029487  23.2306641  31.5360462  44.5721721  21.2952866  30.7766839
  45.1996183  20.8071651  30.0309306  44.4211721  20.3382866  32.0076839
  43.9630244  20.9452492  32.7885784  43.5841721  19.0192866  31.8096839
  44.0420037  18.4115462  31.0292079  43.5651433  18.4568572  32.7431782
  42.5651582  19.2751247  31.5194096  45.7441721  19.7622866  32.3776839
  46.4325012  20.5674201  32.6347157  45.6254717  19.0990500  33.2344960
  46.1439947  19.1983185  31.5349606  43.2181721  21.7052866  30.2186839
  42.4811721  22.4172866  30.9146839  42.8881721  21.2982866  28.9336839
  43.6213745  21.0016922  28.3055554  41.5171721  21.5032866  28.3756839
  41.1761384  22.5063055  28.6320982  41.4841721  21.3502866  26.8586839
  41.4749111  20.2788914  26.6583673  40.2901721  22.0152866  26.1486839
  40.2990296  23.0868398  26.3481707  40.3650254  21.8455665  25.0745837
  39.3602188  21.5847699  26.5200903  42.5531721  21.8572866  26.1176839
  42.4018462  21.6928855  25.1840496  40.4951721  20.6632866  29.1456839
  39.9621721  19.6742866  28.5796839  40.1551721  21.0692866  30.3826839
  40.5918067  21.8701285  30.8163910  39.2431721  20.2292866  31.2076839
  39.5425006  19.1818144  31.2437879  39.1111721  20.7812866  32.6576839
  38.3263828  20.2164423  33.1608310  40.4071721  20.6652866  33.4496839
  41.1923721  21.2302973  32.9473647  40.2576367  21.0648948  34.4527059
  40.7002053  19.6175443  33.5165168  38.5791721  22.2402866  32.7606839
  39.1232650  22.7834487  31.9880011  37.5282229  22.1670414  32.4809693
  38.7041721  23.0012866  34.1166839  39.7549472  23.0753387  34.3968407
  38.2851295  24.0020828  34.0122351  38.1599066  22.4589296  34.8898098
  37.8961721  19.9852866  30.5876839  37.3931721  20.8482866  29.8916839
  37.3541721  18.7682866  30.7136839  38.0631721  17.5072866  31.0756839
  38.3446113  17.5886691  32.1255740  38.9624840  17.4581237  30.4617456
  37.1131721  16.3402866  30.8116839  36.7126556  15.9780266  31.7584960
  37.6566396  15.5358346  30.3161020  35.9861721  16.8972866  29.8936839
  34.9881371  16.5083066  30.0954750  36.2390132  16.7227097  28.8478857
  36.0321721  18.4112866  30.2016839  35.9110188  18.9036373  29.2367948
  34.8941721  18.8192866  31.1246839  34.8161721  18.5002866  32.3226839
  33.9011721  19.4682866  30.4386839  33.8957804  19.5338083  29.4308262
  32.8111721  20.0932866  31.1776839  33.1678354  20.5630072  32.0943371
  32.2141721  21.1832866  30.2656839  32.9953590  21.9383159  30.1774961
  32.0686958  20.6973387  29.3009086  30.9111721  21.8482866  30.7016839
  30.1670108  21.0641750  30.5620638  31.0049392  22.0745233  31.7638157
  30.4651721  23.1292866  29.9356839  29.3301721  23.6542866  30.1566839
  31.2071721  23.6342866  29.0526839  31.8601721  18.9202866  31.4426839
  31.4191721  18.2082866  30.5646839  31.5231721  18.7312866  32.6916839
  32.0702979  19.3490358  33.2740401  30.6151721  17.7732866  33.3486839
  29.8524167  17.5130723  32.6147957  31.3581721  16.4962866  33.7566839
  30.8010470  16.0278424  34.5680235  31.5031721  15.4912866  32.5806839
  32.0606323  15.9588939  31.7690921  32.0365236  14.6046389  32.9234538
  30.5142281  15.2042728  32.2233138  32.6691721  16.7032866  34.1426839
  33.0684068  15.8638825  34.3827106  29.9161721  18.4282866  34.5276839
  30.3491721  19.4462866  35.0416839  28.8701721  17.7792866  35.0416839
  28.4977917  16.9232931  34.6560581  28.2641721  18.3122866  36.3016839
  27.7437269  19.2609838  36.1704985  27.2361721  17.2432866  36.8246839
  27.7094017  16.2690514  36.7021285  26.8061721  17.4182866  38.2696839
  26.3324068  18.3921747  38.3929239  26.0977481  16.6338822  38.5360374
  27.6791102  17.3546636  38.9193237  26.0441721  17.1942866  36.0366839
  25.4511005  16.5296172  36.3945678  29.4171721  18.4622866  37.3796839
  29.4351721  19.5232866  38.0056839  30.2471721  17.4682866  37.6266839
  30.1688074  16.6069800  37.1050430  31.2291721  17.5332866  38.7266839
  30.7113216  17.7538199  39.6601158  31.9641721  16.2372866  38.8816839
  31.1712420  15.5434490  39.1608799  32.4489882  15.8865891  37.9706050
  33.0201721  16.1692866  39.9956839  32.7701721  16.5642866  41.3386839
  31.7875285  16.9364619  41.6285060  33.8061721  16.4722866  42.3026839
  33.6316658  16.8008511  43.3272295  35.0691721  15.9522866  41.9316839
  35.8396211  15.7205887  42.6670915  35.3121721  15.7382866  40.5786839
  36.3324590  15.4778166  40.2971341  34.3091721  15.8442866  39.5856839
  34.5586999  15.6730250  38.5385424  32.1371721  18.7072866  38.4636839
  32.3421721  19.5312866  39.3966839  32.6471721  18.8832866  37.2556839
  32.6458215  18.1292427  36.5837351  33.3321721  20.1332866  36.8986839
  34.2120549  20.3253432  37.5127033  33.7711721  19.9152866  35.4936839
  34.4013190  19.0258969  35.4940811  32.8721757  19.7227224  34.9081718
  34.5751721  21.1372866  34.8486839  35.1860198  21.7184958  35.5394530
  35.2173814  20.6666920  34.1042311  33.6271721  22.0682866  34.1456839
  32.4331721  21.7872866  33.9646839  34.1161721  23.2862866  33.8586839
  33.5333189  23.9627336  33.3866638  35.0644129  23.5199492  34.1162546
  32.5521721  21.4112866  37.0826839  33.0531721  22.3802866  37.6856839
  31.2771721  21.4902866  36.7176839  30.9246066  20.6413021  36.2993274
  30.3811721  22.6862866  36.7566839  30.9470114  23.5339153  36.3700952
  29.1581721  22.4532866  35.8456839  28.5793290  21.6156770  36.2348509
  28.2811721  23.7012866  35.8036839  28.8592344  24.5392691  35.4141598
  27.4225376  23.5210100  35.1568870  27.9343886  23.9363322  36.8099619
  29.5761721  22.2292866  34.5456839  28.8111567  22.0850684  33.9839430
  30.0221721  22.9922866  38.2226839  29.9811721  24.1502866  38.6206839
  29.8891721  22.0092866  39.1286839  29.8766798  21.0457812  38.8260280
  29.7881721  22.2992866  40.6226839  29.1003545  23.1184287  40.8324752
  29.3111721  21.0372866  41.4006839  30.0345221  20.2362551  41.2483270
  29.1881721  21.3322866  42.8856839  28.4645999  22.1329586  43.0388784
  28.8536527  20.4360829  43.4081933  30.1578782  21.6398065  43.2770958
  27.9681721  20.5322866  40.8376839  28.0885281  20.2748679  39.7853759
  27.6495974  19.6500351  41.3928794  27.2152827  21.3143204  40.9360791
  31.1401721  22.6932866  41.2466839  31.1251721  23.6352866  42.0166839
  32.2611721  22.0592866  40.8466839  32.1637897  21.2844313  40.2062035
  33.6051721  22.3682866  41.3716839  33.5748404  22.3018468  42.4592339
  34.6861721  21.4172866  40.8536839  34.3593141  20.4079487  41.1036840
  34.7100214  21.5329836  39.7701040  35.9931721  21.6392866  41.3846839
  36.6041982  21.0019853  41.0077302  33.8821721  23.8452866  41.0256839
  34.2801721  24.6132866  41.8836839  33.7121721  24.2242866  39.7536839
  33.3776068  23.5641997  39.0663335  34.0341721  25.5622866  39.3176839
  35.1016178  25.7571608  39.4210426  33.6511721  25.6952866  37.8316839
  34.3357584  25.0190305  37.3197087  32.6246668  25.4403894  37.5682181
  33.9131721  27.0912866  37.2686839  33.0611721  27.9232866  36.6696839
  32.0745921  27.5179379  36.4450684  33.6491721  29.1742866  36.4576839
  33.1699677  29.9944966  36.1145830  34.9871721  29.1032866  36.7716839
  36.0811721  30.0422866  36.7856839  35.8574323  31.0450953  36.4217968
  37.2991721  29.6532866  37.2346839  38.0907929  30.3835438  37.4024960
  37.5511721  28.3352866  37.4836839  38.5689042  28.0156296  37.7076042
  36.5311721  27.3472866  37.4636839  36.7541821  26.3629412  37.8753044
  35.1981721  27.7702866  37.1206839  33.3431721  26.6732866  40.1046839
  33.9991721  27.5872866  40.5676839  32.0211721  26.5742866  40.1906839
  31.6468497  25.8348105  39.6134863  31.0881721  27.4702866  40.8536839
  31.3629793  28.5021029  40.6347425  29.6591721  27.2372866  40.3836839
  29.4287058  26.1801381  40.2516937  28.9137363  27.6924683  41.0357844
  29.4991721  27.8982866  39.0036839  29.2681721  29.2662866  38.7616839
  29.1081721  29.4942866  37.4246839  28.8298171  30.4847447  37.0646697
  29.3521721  28.3262866  36.7476839  29.3887596  28.1867132  35.7480437
  29.5531721  27.3032866  37.7266839  29.7115223  26.2716741  37.4123559
  31.1861721  27.4982866  42.4486839  31.0591721  28.5372866  43.0436839
  31.5191721  26.4042866  43.0786839  31.5572288  25.5971886  42.4726774
  31.9211721  26.2322866  44.5326839  31.1631690  26.6588771  45.1896093
  32.0571721  24.7332866  44.8476839  31.0550725  24.3057578  44.8810709
  32.6399059  24.2320516  44.0748419  32.7201721  24.3972866  46.1816839
  32.0721721  24.4562866  47.4456839  31.0447763  24.8185667  47.4818887
  32.7101721  24.0692866  48.6096839  32.1718580  24.0450071  49.5571696
  34.0951721  23.6972866  48.5616839  34.6105661  23.4486180  49.4893869
  34.7851721  23.6512866  47.3426839  35.8263786  23.3355088  47.2773108
  34.0781721  24.0362866  46.1586839  34.5934673  24.0560931  45.1983827
  33.3311721  26.8332866  44.8196839  33.4801721  27.5452866  45.8036839
  34.3321721  26.6672866  44.0146839  34.2489044  26.0194864  43.2442809
  35.5691721  27.3572866  44.1876839  35.9897273  27.1289949  45.1670283
  36.5731721  26.9202866  43.1076839  36.1641162  26.9976310  42.1003159
  37.5118795  27.4716858  43.1614194  37.0031721  25.1672866  43.3446839
  37.8413171  25.0892897  42.3149617  35.4331721  28.8882866  44.1126839
  35.9751721  29.6122866  44.9346839  34.5941721  29.4402866  43.2236839
  34.2632562  28.9360129  42.4135592  34.1861721  30.8962866  43.3826839
  35.0763277  31.5253469  43.3850310  33.3071721  31.2582866  42.1766839
  32.5559756  30.4831256  42.0252587  32.5981721  32.6242866  42.4486839
  33.3487777  33.4000882  42.5997596  31.9727036  32.8858909  41.5951893
  31.9778571  32.5409225  43.3410733  34.1801721  31.4082866  40.9186839
  34.7621368  32.3296283  40.9420801  34.8510438  30.5585031  40.7925943
  33.1991721  31.4572866  39.7546839  32.5282215  32.3071456  39.8798435
  33.7490921  31.5638107  38.8196225  32.6171266  30.5360206  39.7303592
  33.4411721  31.1892866  44.7686839  33.7501721  32.1572866  45.4346839
  32.5261721  30.3392866  45.2676839  32.2605129  29.5742844  44.6641145
  31.7941721  30.5112866  46.5536839  31.3159024  31.4905758  46.5349750
  30.7221721  29.4522866  46.6826839  31.1862507  28.4664489  46.7119259
  30.1583691  29.6152748  47.6011943  30.0481903  29.5108111  45.8280362
  32.7761721  30.5452866  47.7406839  32.5931721  31.2862866  48.7286839
  33.7741721  29.6972866  47.6636839  33.8087127  29.0371503  46.9000568
  34.8261721  29.6142866  48.7186839  34.3798740  29.6095338  49.7131157
  35.5871721  28.3292866  48.5266839  34.7316339  27.6713652  48.3740639
  36.1779855  28.3743280  47.6118009  36.4641721  27.7772866  49.6816839
  37.4179682  28.2864962  49.5435554  36.0031721  27.9192866  51.1936839
  35.0496046  27.4098935  51.3327039  36.7524747  27.4710408  51.8461577
  35.8903732  28.9745901  51.4421015  36.8221721  26.3482866  49.4066839
  37.3773158  26.2859082  48.4707224  37.4379826  25.9644632  50.2200463
  35.9119765  25.7536399  49.3289791  35.7551721  30.8502866  48.6946839
  36.2731721  31.1782866  49.7886839  35.9431721  31.5202866  47.5646839
  35.7077987  31.0243478  46.7168966  36.4671721  32.9282866  47.4466839
  37.4583385  33.0121398  47.8923936  36.5111104  33.2398455  46.4030844
  35.4961721  33.8532866  48.2056839  35.8841721  34.3272866  49.3016839
  34.2831721  34.1052866  47.6896839  34.0168011  33.6377404  46.8349638
  33.3291721  35.0822866  48.2876839  33.7612572  36.0822756  48.2499521
  32.0751721  35.0932866  47.5676839  31.8478839  34.0414493  47.3942550
  31.3197553  35.5241541  48.2247977  32.0761721  35.8352866  46.2436839
  32.0061721  37.2692866  46.2686839  32.1004189  37.7765335  47.2288493
  31.8181721  38.0292866  45.0756839  31.5947892  39.0947889  45.1295980
  31.7051721  37.3672866  43.8866839  31.6371721  38.0882866  42.7696839
  31.6767871  39.0338762  42.9305897  31.8841721  35.9712866  43.8296839
  31.8512972  35.4924501  42.8510444  32.1011721  35.1932866  44.9906839
  32.2824525  34.1220598  44.9028739  33.0371721  34.8042866  49.7956839
  32.4811721  35.7352866  50.4456839  33.2761721  33.6212866  50.3656839
  33.6183372  32.9341907  49.7092377  33.1381721  33.2292866  51.7776839
  32.0907287  33.3067999  52.0691512  33.6051721  31.7862866  52.0066839
  34.6101388  31.6594762  51.6041154  33.6161721  31.4922866  53.4956839
  32.6113838  31.6184458  53.8989009  33.9476971  30.4672906  53.6617364
  34.2973456  32.1796890  53.9972627  32.7481721  30.8772866  51.3796839
  33.0599953  29.9830053  51.5366154  34.0361721  34.1572866  52.6076839
  33.6671721  34.5792866  53.6426839  35.2081721  34.5812866  52.0916839
  35.5294548  34.1587315  51.2324261  36.0901721  35.5592866  52.7646839
  36.4807050  35.2036961  53.7181715  37.3081721  35.7152866  51.7396839
  37.5647191  34.7023887  51.4293281  36.9751219  36.2868119  50.8733488
  38.5461721  36.3752866  52.3076839  39.0521721  37.2962866  51.7026839
  39.1251721  36.0072866  53.3636839  39.9488518  36.4977962  53.6815708
  38.7630639  35.2234119  53.8876294  35.2881721  36.8612866  53.0876839
  35.4841721  37.3852866  54.1886839  34.4521721  37.3992866  52.1866839
  34.4122787  36.9240461  51.2963726  33.6181721  38.5832866  52.3776839
  34.1819958  39.3994754  52.8293895  33.1421721  39.0252866  50.9956839
  32.6155103  38.1775789  50.5573710  32.4423206  39.8464193  51.1507610
  34.1531721  39.4352866  50.1376839  33.7724211  39.6951891  49.2956155
  32.4361721  38.3072866  53.2436839  32.0141721  39.1962866  53.9926839
  31.9561721  37.0452866  53.3476839  32.2060721  36.4014826  52.6106861
  31.0071721  36.6312866  54.3026839  30.2501995  37.4007719  54.4542892
  30.3121721  35.3492866  53.7816839  30.2072018  35.3396574  52.6967932
  30.8145422  34.4378345  54.1056892  28.6411721  35.2612866  54.4456839
  28.3160940  34.1160169  53.8527423  31.5951721  36.5242866  55.7276839
  30.8701721  36.4022866  56.7686839  32.9121721  36.5522866  55.9156839
  33.5012841  36.6367314  55.0996475  33.5571721  36.2772866  57.2236839
  32.8020490  36.1876437  58.0046144  34.3331721  34.9732866  57.1466839
  33.6694651  34.2883491  56.6189977  35.2042993  35.1843707  56.5264573
  34.8001721  34.3132866  58.5016839  35.5700905  34.9643172  58.9157922
  33.6861721  34.1052866  59.5476839  32.9160611  33.4539380  59.1344372
  34.1078498  33.6464862  60.4419942  33.2461279  35.0682164  59.8069669
  35.3701721  32.9942866  58.0796839  36.2013346  33.1596771  57.3941808
  35.7255528  32.4540203  58.9571337  34.5990887  32.4077749  57.5801508
  34.3861721  37.4322866  57.8106839  34.4501721  37.5422866  59.0286839
  34.9231721  38.2672866  56.9386839  34.9790017  37.9528014  55.9805182
  35.6851721  39.4702866  57.3256839  36.5873270  39.1862576  57.8674803
  36.1061721  40.2752866  56.0286839  35.3798798  40.2484629  55.2163544
  36.2040113  41.2974720  56.3942856  37.4841721  39.8102866  55.4786839
  38.1921721  39.0802866  56.0936839  37.7801721  40.1452866  54.2076839
  38.6641108  39.8648592  53.8075430  37.1167816  40.6753212  53.6608044
  35.1621721  40.3582866  58.4566839  35.9561721  40.8622866  59.2916839
  33.8561721  40.5822866  58.5556839  32.7961721  40.1272866  57.6946839
  32.5279754  39.1076245  57.9711979  33.1463484  40.1431367  56.6625868
  31.6381721  41.1392866  57.9446839  30.6647332  40.7695135  57.6225294
  31.8191866  42.1184756  57.5013736  31.7311721  41.2022866  59.4226839
  31.2674755  40.3871985  59.9783059  31.2974496  42.1505724  59.7400772
  33.2671721  41.2092866  59.6766839  33.6345484  42.2349659  59.6432920
  33.5191721  40.6222866  61.0696839  33.7631721  41.3482866  62.0096839
  33.5071721  39.2382866  61.1276839  33.1260202  38.7213281  60.3482120
  33.9391721  38.4672866  62.3586839  33.7042294  39.0152784  63.2711564
  33.2611721  37.0822866  62.4266839  33.9047783  36.3494700  61.9400114
  33.0231721  36.6632866  63.8976839  32.3792259  37.3954326  64.3849175
  32.5444628  35.6843941  63.9242799  33.9779980  36.6145664  64.4211680
  31.8991721  37.0372866  61.6526839  32.0695004  37.2741619  60.6024551
  31.4671228  36.0398970  61.7342126  31.2122685  37.7664624  62.0822965
  35.4251721  38.3002866  62.5116839  36.0081721  38.2602866  63.5926839
  36.1321721  38.3242866  61.4206839  35.6983789  38.5592949  60.5393816
  37.5981721  37.9952866  61.4276839  37.8486396  37.1977465  62.1271801
  37.8821721  37.5052866  60.0046839  37.1246301  36.7680006  59.7389049
  37.7911831  38.3714351  59.3492391  39.2451721  36.9002866  59.8466839
  39.9412093  37.7194988  60.0270295  39.6081721  35.7292866  60.7266839
  38.9128081  34.9094570  60.5465534  40.6221977  35.4020687  60.4969419
  39.5520705  36.0293406  61.7730684  39.3351721  36.3942866  58.4226839
  39.1982747  37.2260520  57.7316521  40.3136421  35.9430791  58.2580339
  38.5584906  35.6488952  58.2516389  38.5261721  39.2032866  61.7826839
  39.4401721  39.0242866  62.6386839  38.0731721  40.4012866  61.3316839
  37.2962524  40.3105083  60.6927360  38.7261721  41.7192866  61.4566839
  39.5708380  41.6631144  62.1433305  39.2491721  42.1622866  60.0606839
  38.3853388  41.9269125  59.4390005  39.4710056  43.2268247  59.9855263
  40.4161721  41.3822866  59.5976839  41.7771721  41.7292866  60.0316839
  41.9167656  42.5585179  60.7252173  42.9241721  40.9862866  59.5506839
  43.9291215  41.2223167  59.9006389  42.7471721  40.1462866  58.4426839
  43.8391721  39.4712866  57.9206839  44.6543222  39.6541326  58.3936504
  41.3951721  39.7982866  58.0426839  41.2624893  39.0308789  57.2800692
  40.2831721  40.4182866  58.6076839  39.2809873  40.1494722  58.2738209
  37.9951721  42.7872866  62.2366839  38.6691721  43.6972866  62.6546839
  36.6441721  42.6232866  62.5046839  36.1439414  41.9584612  61.9320796
  35.8681721  43.5452866  63.3366839  36.6502144  44.2283702  63.6682044
  34.9201721  44.3072866  62.3716839  34.1264018  43.6388292  62.0382271
  34.4822739  45.1603096  62.8900440  35.4853524  44.6584413  61.5083410
  35.2491721  43.0022866  64.6636839  35.8261721  43.3232866  65.7266839
  34.1621721  42.1822866  64.6786839  33.9581513  41.7189697  63.8047204
  33.3051721  41.8892866  65.8416839  32.6912487  42.7529599  66.0971554
  32.3531721  40.6852866  65.4716839  32.8765877  39.7748561  65.1797051
  31.9293910  40.5566139  66.4676522  31.1561721  40.8412866  64.4966839
  30.9491721  42.1082866  63.9366839  31.5489156  42.9768318  64.2087814
  29.9371721  42.2322866  63.0046839  29.7182058  43.2445558  62.6648815
  29.2171721  41.1642866  62.5036839  28.4007946  41.3040082  61.7950899
  29.5631721  39.8682866  62.9326839  29.1390638  38.9769702  62.4703124
  30.4851721  39.7422866  63.9906839  30.6824270  38.7635588  64.4280423
  33.9481721  41.4322866  67.1876839  33.4791721  41.9842866  68.2206839
  35.0181721  40.6872866  67.1166839  35.3687371  40.4118947  66.2103932
  35.6671721  40.1472866  68.2996839  35.0032595  40.1798271  69.1635475
  36.0281721  38.6492866  68.0006839  36.6088816  38.8761592  67.1065896
  36.6724039  38.1750987  68.7410968  34.8321721  37.6572866  67.6216839
  34.2587320  38.1232657  66.8203533  35.3111721  36.2862866  67.1706839
  35.8843402  35.8194609  67.9717151  34.4511710  35.6619195  66.9284763
  35.9418336  36.3933733  66.2881314  33.6781721  37.6092866  68.6196839
  33.2366644  38.6014506  68.7133916  32.9219866  36.9074055  68.2680482
  34.0506461  37.2846799  69.5912767  36.9201721  40.8932866  68.8576839
  37.4811721  40.5622866  69.8746839  37.3271721  41.9832866  68.2016839
  36.8227861  42.1942954  67.3524670  38.3801721  42.9502866  68.6636839
  39.1992358  42.4413454  69.1718303  38.9361721  43.6372866  67.3966839
  38.0747455  43.8749634  66.7725420  39.4236468  44.5607702  67.7091683
  39.9311721  42.7782866  66.5926839  40.1741721  41.5702866  66.9186839
  40.5081721  43.3092866  65.6136839  37.6701721  44.0602866  69.5346839
  36.5411721  44.5622866  69.2986839  38.4231721  44.4802866  70.5286839
  39.3770127  44.1489558  70.5061594  38.0121721  45.3752866  71.6476839
  37.4604945  44.8382155  72.4192444  39.3191721  45.9122866  72.2606839
  39.9959035  46.0906816  71.4250350  39.0660903  46.8621029  72.7317450
  40.0101721  44.9902866  73.2966839  40.8856626  45.5431068  73.6372821
  39.3105553  44.8730140  74.1242602  40.4351721  43.6322866  72.8026839
  40.0591721  42.6372866  73.5076839  41.1421721  43.5772866  71.7406839
  37.1171721  46.6002866  71.2206839  36.1551721  46.8422866  71.9306839
  37.4831721  47.3422866  70.1986839  38.3587630  47.0789465  69.7696244
  36.7531721  48.4662866  69.6396839  36.8678286  49.3495440  70.2680226
  37.3051721  48.7722866  68.2756839  37.7435883  47.7771618  68.2007364
  36.6931810  48.9664108  67.3948419  38.4201721  49.7882866  68.3216839
  38.3161721  50.7962866  67.5746839  39.5911721  49.4562866  68.7646839
  40.3310018  50.1433304  68.7915679  39.7589192  48.5119279  69.0811460
  35.2331721  48.1092866  69.5036839  34.4141721  48.9922866  69.8366839
  34.9331721  46.8302866  69.0806839  35.7363156  46.2694304  68.8347162
  33.6121721  46.3092866  68.7806839  32.8920833  47.1273683  68.7983937
  33.5641721  45.6452866  67.4026839  34.0328834  44.6613304  67.3872195
  32.4834837  45.5337991  67.3144624  34.0371721  46.3792866  66.1316839
  33.1811721  47.1612866  65.3796839  32.1110632  47.1710469  65.5867383
  33.7161721  47.9692866  64.3126839  33.1112903  48.6860519  63.7572866
  35.0691721  47.8052866  63.9996839  35.4408248  48.2708991  63.0868974
  35.9571721  47.0562866  64.8326839  37.0268325  47.0113083  64.6279794
  35.4301721  46.3772866  65.9216839  36.0926531  45.8479574  66.6065412
  33.0341721  45.4412866  69.8946839  31.8481721  45.6722866  70.1886839
  33.7611721  44.7052866  70.6876839  34.5938755  44.3414802  70.2468332
  33.4241721  44.2322866  72.0466839  32.6329030  43.4832777  72.0154126
  34.7151721  43.5752866  72.6666839  35.1467070  42.9584654  71.8783893
  35.3918629  44.3989176  72.8943275  34.4991721  42.6972866  73.9636839
  33.7055319  43.1460989  74.5610142  34.2015210  41.6935551  73.6603212
  35.8461721  42.6152866  74.8376839  36.3135091  43.5936285  74.9496760
  35.6614223  42.1865654  75.8226535  36.8041721  41.6662866  74.0236839
  36.2353966  40.7760769  73.7551291  37.0994551  42.1952318  73.1175249
  38.0351721  41.2622866  74.7926839  37.7617871  40.7717607  75.6321746
  38.6063313  40.6572838  74.2201031  38.5625759  42.0870014  75.0412598
  32.7771721  45.2682866  72.9266839  31.7011721  45.1072866  73.4786839
  33.4211721  46.3942866  72.9836839  34.3026175  46.4289151  72.4917953
  32.9941721  47.5882866  73.7396839  32.8340996  47.3267555  74.7856655
  34.0351721  48.6442866  73.6686839  34.4089601  48.6194038  72.6450811
  33.5114437  49.5845745  73.8409258  35.2161721  48.5282866  74.6486839
  34.8408471  48.4917373  75.6713745  35.7799693  47.6198887  74.4364389
  36.1421721  49.7622866  74.4816839  36.1750049  50.0762100  73.4383847
  35.7906103  50.5893331  75.0985290  37.4881721  49.4052866  74.9036839
  37.5745624  48.6474229  75.5657100  38.6101721  50.0312866  74.4916839
  39.8181721  49.6312866  74.7786839  39.9523450  48.8043615  75.3428582
  40.6136487  50.1503813  74.4353804  38.4971721  51.0962866  73.7976839
  37.5797305  51.4515307  73.5692049  39.3257228  51.5788101  73.4802353
  31.6381721  48.1722866  73.2346839  30.6761721  48.1812866  74.0106839
  31.5121721  48.3982866  71.9386839  32.2630562  48.2686592  71.2757592
  30.2391721  48.9042866  71.4486839  29.9445473  49.7410513  72.0820244
  30.2701721  49.3702866  70.0216839  30.7433780  48.6477464  69.3567696
  29.2790031  49.6180493  69.6418186  31.2601721  50.9022866  69.8926839
  31.1070637  51.0566819  68.5805794  29.1121721  47.8612866  71.5556839
  27.9951721  48.2502866  71.9246839  29.4351721  46.5322866  71.4166839
  30.3206433  46.3287692  70.9755254  28.4621721  45.4202866  71.5916839
  27.4946791  45.6804357  71.1622903  28.9991721  44.1962866  70.8716839
  29.9360004  44.0075258  71.3959180  28.2688129  43.4360902  71.1487703
  29.2781721  44.0102866  69.4196839  29.6831721  42.7742866  68.8256839
  29.9223825  41.9343929  69.4779544  29.7771721  42.6272866  67.4106839
  30.0372295  41.6813736  66.9355845  29.5191721  43.7632866  66.6216839
  29.5215101  43.6824041  65.5346915  29.2611721  44.9892866  67.2276839
  29.1723203  45.8612150  66.5796512  29.1171721  45.1282866  68.6046839
  28.8813967  46.1027499  69.0323884  27.8681721  45.1412866  72.9876839
  26.7711721  44.5022866  73.1186839  28.6091721  45.5922866  73.9826839
  29.5027486  45.9872379  73.7264927  28.2801721  45.5122866  75.3566839
  27.6360019  44.6618184  75.5799500  29.6561721  45.3112866  76.1006839
  30.4300396  45.8611088  75.5650312  29.5690759  45.7022285  77.1144288
  30.0311721  43.8252866  76.1566839  29.2695813  43.3679132  76.7882611
  29.9158371  43.4686262  75.1331639  31.3741721  43.4572866  76.6586839
  31.5094676  42.3865660  76.5058721  32.1140859  44.0036108  76.0737420
  31.5831721  43.7612866  78.0886839  30.7942434  43.4209454  78.6195875
  32.5861721  44.2732866  78.7306839  32.5421721  44.2462866  80.0146839
  31.7456436  43.8363077  80.4811167  33.3043258  44.6351743  80.5513288
  33.6551721  44.7052866  78.1606839  33.7439092  44.6543547  77.1558796
  34.4008045  45.0933985  78.7205948  27.5561721  46.6922866  75.8086839
  26.6111721  46.6032866  76.5556839  27.9651721  47.7942866  75.2746839
  28.7436839  47.7712376  74.6316540  27.4251721  49.0882866  75.6566839
  27.1265494  49.0408436  76.7039054  28.4331721  50.2462866  75.4826839
  28.8114523  50.1408917  74.4658775  27.8349176  51.1545686  75.5549017
  29.6441721  50.3342866  76.4866839  30.2653340  49.4444688  76.3842975
  30.1910932  51.2027534  76.1196118  29.2991721  50.5352866  77.9186839
  29.9851721  50.0502866  78.8626839  28.3361721  51.2872866  78.1816839
  26.1301721  49.4622866  74.9666839  25.2461721  50.1592866  75.5056839
  25.8951721  48.9922866  73.7086839  26.6172683  48.3817577  73.3538166
  24.8321721  49.3682866  72.8286839  24.0111111  49.8117101  73.3920076
  25.3731721  50.4472866  71.7786839  25.9494662  49.9730402  70.9842818
  24.4785689  50.9037017  71.3550444  26.2381721  51.5972866  72.3236839
  25.6661721  52.5792866  73.0906839  24.5945025  52.5473035  73.2871558
  26.4661721  53.6452866  73.6346839  26.0574476  54.4275978  74.2742417
  27.8711721  53.6482866  73.2976839  28.4605388  54.5162859  73.5931906
  28.4861721  52.5772866  72.6096839  29.5621520  52.4891198  72.4593706
  27.6211721  51.5872866  72.1046839  28.0214688  50.7641861  71.5127649
  24.1791721  48.1362866  72.1716839  24.2251721  47.9682866  70.9266839
  23.5811721  47.3002866  72.8436839  39.9341721  35.3882866  38.7406839
  37.7721721  35.9842866  39.9696839  37.6441721  37.1722866  38.9996839
  38.9901721  37.5972866  38.4106839  38.6401721  34.8682866  39.3706839
  39.6421721  36.4422866  37.7576839  38.9881721  36.0752866  37.0666839
  35.5001721  35.0192866  39.5066839  36.4541721  35.5062866  40.4626839
  35.8571721  34.3952866  38.5266839  36.1381721  35.5102866  41.9206839
  36.2471721  34.2742866  42.5526839  35.9841721  34.1242866  43.9036839
  35.4871721  36.4682866  44.0386839  35.6031721  35.2282866  44.6456839
  35.7541721  36.6012866  42.6836839  33.9801721  35.2312866  39.6276839
  33.2781721  34.8262866  38.3156839  40.8661721  36.8352866  37.0376839
  41.5531721  35.6502866  36.3636839  42.1011721  36.6002866  34.0926839
  40.9421721  35.8532866  32.1486839  41.3381721  35.7262866  34.8506839
  41.8991721  36.6582866  32.7296839  40.1821721  34.9862866  32.8946839
  40.3811721  34.9242866  34.2606839  68.6278770   3.0282870  59.1468690
  43.7002810  11.5979660  36.6823490  55.0975390  40.9459080   3.0803990
  23.3011320  70.7004430  11.5220230  29.0888180   7.6096320  48.6844680
  68.7234420  26.8099140  56.5178380  39.6905600  44.4577630  17.1678830
  26.8513740  11.4950220   2.3771080  55.3740120  70.0277060  32.1139490
  66.0000590  41.3729860   7.2730450  24.5382320  64.6314270  47.4769410
   6.9439580  15.8949670  39.6518380  59.6065700  45.4125960  10.9128420
  47.0433420  23.2789810  10.2597000  71.8041090  79.5521940  99.6857180
  70.9725970  79.2970650 100.0853690  72.4122070  79.6232710 100.4215100
  70.2133040  74.5123830  93.4699570  69.3249740  74.8539800  93.3679450
  70.4974230  74.3124150  92.5780400  68.1766050  77.1129480  99.3539270
  68.7482160  76.3451680  99.3542910  68.1767590  77.4118240  98.4445880
  72.3894430  73.0955330  94.5037950  72.4961180  73.9959060  94.8106710
  71.4786790  73.0473300  94.2132600  70.0377590  75.0174340  99.7490540
  70.7187700  75.2812710 100.3677940  69.7225640  74.1775210 100.0828550
  74.2302160  76.0641700  98.8363130  74.7380380  76.5622670  99.4768150
  74.7615400  75.2876900  98.6602490  72.1953590  72.4150220 101.1097000
  72.5370400  73.2592270 100.8150870  71.2569400  72.5633960 101.2262340
  75.8781480  69.9032490  97.4341590  76.1856460  69.3479380  96.7177090
  74.9482180  70.0376950  97.2514580  73.8718880  78.4946060  96.9521440
  73.4675880  77.7823310  96.4567340  73.9582000  78.1499300  97.8409480
  72.5847500  75.2689270 100.7320480  73.1362090  75.3784610  99.9573730
  73.0991010  75.6426870 101.4475710  70.5723510  77.3891040  94.4528090
  70.4521110  78.1153130  93.8409360  70.2624400  76.6193950  93.9756000
  73.0387170  70.7326110  97.8351760  72.5955320  71.5135650  97.5036280
  73.5972160  71.0556000  98.5422700  76.1545990  70.3536810  92.7157590
  75.5300170  70.3496680  93.4410900  76.0676110  69.4867770  92.3193560
  75.0763070  71.2773440  99.6941360  75.3735400  72.1836270  99.6133380
  75.6248630  70.7892220  99.0800930  72.8301390  75.8559680  95.5633010
  72.6042310  75.6396850  96.4679630  72.0493920  76.2888140  95.2178980
  67.7028190  71.0887390  98.4157140  67.4141240  71.6590250  99.1282120
  68.4473950  70.6091840  98.7788370  67.8898420  75.0307510  89.6259860
  67.8073090  75.9738270  89.7674850  67.5381480  74.8882420  88.7472210
  75.6896550  73.7646540  98.6930210  75.6932610  73.3236490  97.8434750
  76.5847670  74.0863870  98.8002030  71.5398930  73.6473030  97.6524420
  71.1998980  74.1248260  98.4091470  70.7776250  73.1938150  97.2925520
  75.7516700  74.7658620  91.6836970  75.8729520  74.7245100  92.6322790
  75.3665210  75.6282770  91.5283700  74.7638200  77.0759760  91.0820270
  74.1955100  76.6278010  90.4556180  75.4727200  77.4352540  90.5485420
  75.9904520  77.8248320 100.4395620  76.3574650  77.3506890 101.1856960
  75.8009580  78.6989890 100.7803960  68.8545010  72.5692010  96.5689090
  68.5691930  72.2047680  97.4067710  68.7923870  71.8372470  95.9552230
  68.3475670  77.7050960  90.5285790  69.2170520  77.9875760  90.8121710
  67.8565990  78.5186830  90.4134600  75.5110480  79.0924170  94.6494070
  75.9673260  79.9029420  94.8754260  75.1598690  78.7747310  95.4812560
  71.4122260  69.4361820  95.1216590  71.2836890  69.4279720  96.0701510
  70.5884280  69.7744910  94.7707600  70.3322180  79.5224430  92.6567850
  69.7250130  80.2623330  92.6663150  70.8071530  79.6123790  91.8306050
  75.2401030  74.9218140  94.5570180  74.5317180  75.3904480  94.9983790
  75.5245510  74.2640150  95.1915370  73.4436050  73.2303220  91.9320890
  74.2926580  73.6673370  91.8661080  73.0767320  73.5423480  92.7592950
  72.3427470  79.4835580  90.4056420  73.1090740  79.3716940  90.9681850
  72.4202160  78.7873550  89.7533190  71.0374230  76.9160650  91.0889310
  71.1177820  75.9688160  91.2006710  71.9293980  77.2467530  91.1949970
  74.3746500  79.4800710  92.3799060  74.7962920  79.3140580  93.2230450
  74.4997340  78.6700940  91.8854200  76.8874140  78.5038320  89.6276160
  77.4079800  77.7887340  89.2617310  77.5342540  79.1424190  89.9276670
  73.2705400  75.5533940  89.3257220  73.0694460  74.6901300  89.6870560
  73.0997450  75.4667300  88.3878820  72.0688200  72.6534560  89.3135100
  72.3714100  72.6601990  88.4054250  72.8082790  72.3032420  89.8102760
  75.2873130  71.5969180  90.2991300  74.9395130  70.9193170  89.7193750
  75.4885900  71.1358690  91.1134690  68.6278770  78.1256830  96.6955670
  67.9727610  77.8568470  96.0515370  69.4656720  78.0161310  96.2457650
  67.8416850  75.3355760  92.6381000  66.9380930  75.5985960  92.4632660
  68.3257470  75.6066930  91.8580960  70.3844060  74.3921300  90.5475380
  71.0935760  73.9704520  90.0622660  69.6684000  74.4596530  89.9158730
  70.0318220  70.4460630  89.5878030  70.7546350  70.9869570  89.9059250
  70.3042740  70.1724050  88.7119570  69.7210410  69.6966820  99.4900650
  70.3686600  69.1464200  99.0495810  70.1412250  69.9509970 100.3116460
  69.4565060  70.4853890  93.1813600  70.2144420  70.5982770  92.6077630
  68.9942230  71.3223090  93.1357030  75.9978870  72.5993160  96.1715910
  75.1853380  72.2250050  95.8311790  76.5020510  71.8438240  96.4737100
  71.8290210  71.0117940  91.7215570  72.3582970  70.2247740  91.5923520
  72.4618530  71.6909130  91.9551100  74.0228050  70.7493080  94.7760960
  73.3930790  70.0480390  94.9431090  73.4833190  71.5097210  94.5594120
  71.8041090  79.5521940  80.9113690  70.9725970  79.2970650  81.3110200
  72.4122070  79.6232710  81.6471610  70.2133040  74.5123830  74.6956080
  69.3249740  74.8539800  74.5935960  70.4974230  74.3124150  73.8036910
  68.1766050  77.1129480  80.5795780  68.7482160  76.3451680  80.5799420
  68.1767590  77.4118240  79.6702390  69.4190920  72.5213840  82.3664710
  69.2393760  71.6239590  82.6467470  69.0171000  73.0685710  83.0411660
  72.3894430  73.0955330  75.7294460  72.4961180  73.9959060  76.0363220
  71.4786790  73.0473300  75.4389110  70.0377590  75.0174340  80.9747050
  70.7187700  75.2812710  81.5934450  69.7225640  74.1775210  81.3085060
  74.2302160  76.0641700  80.0619640  74.7380380  76.5622670  80.7024660
  74.7615400  75.2876900  79.8859000  72.5138260  70.7040260  84.3283060
  72.5156700  71.2212650  83.5228960  71.6842570  70.2270440  84.3052990
  72.1953590  72.4150220  82.3353510  72.5370400  73.2592270  82.0407380
  71.2569400  72.5633960  82.4518850  75.8781480  69.9032490  78.6598100
  76.1856460  69.3479380  77.9433600  74.9482180  70.0376950  78.4771090
  73.8718880  78.4946060  78.1777950  73.4675880  77.7823310  77.6823850
  73.9582000  78.1499300  79.0665990  72.5847500  75.2689270  81.9576990
  73.1362090  75.3784610  81.1830240  73.0991010  75.6426870  82.6732220
  72.2590230  78.7908630  85.5682330  72.1198000  79.6631430  85.9369730
  71.3771590  78.4481440  85.4230270  70.5723510  77.3891040  75.6784600
  70.4521110  78.1153130  75.0665870  70.2624400  76.6193950  75.2012510
  73.0387170  70.7326110  79.0608270  72.5955320  71.5135650  78.7292790
  73.5972160  71.0556000  79.7679210  77.3256980  73.5994630  84.6643590
  76.8636350  73.8077650  85.4763530  76.9235090  72.7853980  84.3614260
  76.1545990  70.3536810  73.9414100  75.5300170  70.3496680  74.6667410
  76.0676110  69.4867770  73.5450070  75.0763070  71.2773440  80.9197870
  75.3735400  72.1836270  80.8389890  75.6248630  70.7892220  80.3057440
  72.8301390  75.8559680  76.7889520  72.6042310  75.6396850  77.6936140
  72.0493920  76.2888140  76.4435490  75.2700600  76.7545260  87.4549790
  75.1744200  75.8139990  87.3050190  76.1132580  76.9760330  87.0597860
  70.4011140  73.1658930  85.6083570  70.0074530  74.0134140  85.8156350
  69.7129540  72.5285300  85.7992210  67.7028190  71.0887390  79.6413650
  67.4141240  71.6590250  80.3538630  68.4473950  70.6091840  80.0044880
  67.8898420  75.0307510  70.8516370  67.8073090  75.9738270  70.9931360
  67.5381480  74.8882420  69.9728720  75.6896550  73.7646540  79.9186720
  75.6932610  73.3236490  79.0691260  76.5847670  74.0863870  80.0258540
  71.5398930  73.6473030  78.8780930  71.1998980  74.1248260  79.6347980
  70.7776250  73.1938150  78.5182030  75.7516700  74.7658620  72.9093480
  75.8729520  74.7245100  73.8579300  75.3665210  75.6282770  72.7540210
  74.7638200  77.0759760  72.3076780  74.1955100  76.6278010  71.6812690
  75.4727200  77.4352540  71.7741930  75.9904520  77.8248320  81.6652130
  76.3574650  77.3506890  82.4113470  75.8009580  78.6989890  82.0060470
  68.8545010  72.5692010  77.7945600  68.5691930  72.2047680  78.6324220
  68.7923870  71.8372470  77.1808740  73.7803890  76.8656960  83.9836340
  73.4760960  77.7448940  84.2086700  74.7350350  76.9256750  84.0193780
  69.8367620  77.7059700  85.1307700  69.4782560  78.3713550  85.7181040
  69.5422180  76.8743250  85.5020320  73.0380740  78.1643940  88.0147250
  72.7380880  78.3101120  87.1175070  73.8091980  77.6049230  87.9220640
  68.3475670  77.7050960  71.7542300  69.2170520  77.9875760  72.0378220
  67.8565990  78.5186830  71.6391110  75.5110480  79.0924170  75.8750580
  75.9673260  79.9029420  76.1010770  75.1598690  78.7747310  76.7069070
  71.4122260  69.4361820  76.3473100  71.2836890  69.4279720  77.2958020
  70.5884280  69.7744910  75.9964110  68.4116190  71.1952940  85.8079800
  67.6974710  71.3949860  86.4132410  68.8311230  70.4192510  86.1794600
  70.3322180  79.5224430  73.8824360  69.7250130  80.2623330  73.8919660
  70.8071530  79.6123790  73.0562560  75.2401030  74.9218140  75.7826690
  74.5317180  75.3904480  76.2240300  75.5245510  74.2640150  76.4171880
  76.8656960  76.3414840  83.7819220  77.3642210  76.8160660  84.4471070
  77.0079910  75.4178360  83.9889250  73.4436050  73.2303220  73.1577400
  74.2926580  73.6673370  73.0917590  73.0767320  73.5423480  73.9849460
  72.3427470  79.4835580  71.6312930  73.1090740  79.3716940  72.1938360
  72.4202160  78.7873550  70.9789700  71.0374230  76.9160650  72.3145820
  71.1177820  75.9688160  72.4263220  71.9293980  77.2467530  72.4206480
  68.5645030  78.7375570  87.5501990  69.0684050  78.1582850  88.1218220
  67.8252450  79.0215800  88.0878360  70.5968110  76.8805160  88.4452060
  70.6373450  76.5819030  89.3537290  71.4513610  77.2812770  88.2859580
  74.3746500  79.4800710  73.6055570  74.7962920  79.3140580  74.4486960
  74.4997340  78.6700940  73.1110710  72.5373920  75.4597260  86.4126550
  72.0070380  74.9688210  85.7849890  73.2061990  75.8881460  85.8784480
  76.8874140  78.5038320  70.8532670  77.4079800  77.7887340  70.4873820
  77.5342540  79.1424190  71.1533180  73.0246220  72.4259630  86.4923840
  72.9303090  71.8080380  85.7674710  72.4443610  73.1525920  86.2653750
  75.7907660  70.9832870  83.5251230  75.3424960  71.0057130  82.6796780
  75.1572860  70.5851890  84.1221530  73.2705400  75.5533940  70.5513730
  73.0694460  74.6901300  70.9127070  73.0997450  75.4667300  69.6135330
  75.2999880  74.1524730  86.7877330  75.8899570  73.8440580  87.4755150
  74.4820120  73.6804480  86.9437230  72.0688200  72.6534560  70.5391610
  72.3714100  72.6601990  69.6310760  72.8082790  72.3032420  71.0359270
  75.2873130  71.5969180  71.5247810  74.9395130  70.9193170  70.9450260
  75.4885900  71.1358690  72.3391200  68.6278770  78.1256830  77.9212180
  67.9727610  77.8568470  77.2771880  69.4656720  78.0161310  77.4714160
  69.6654700  78.5109400  82.4615520  70.0327740  78.4236800  83.3411540
  69.0965520  77.7475950  82.3622380  69.2170700  75.4218490  86.3673940
  68.3226750  75.3885250  86.7067650  69.7568250  75.6205280  87.1325190
  67.8416850  75.3355760  73.8637510  66.9380930  75.5985960  73.6889170
  68.3257470  75.6066930  73.0837470  70.3844060  74.3921300  71.7731890
  71.0935760  73.9704520  71.2879170  69.6684000  74.4596530  71.1415240
  70.0318220  70.4460630  70.8134540  70.7546350  70.9869570  71.1315760
  70.3042740  70.1724050  69.9376080  69.7210410  69.6966820  80.7157160
  70.3686600  69.1464200  80.2752320  70.1412250  69.9509970  81.5372970
  69.4742410  69.8522490  83.4582480  69.1257230  70.3086310  84.2240660
  69.1430110  68.9579620  83.5404910  70.1463050  69.3798690  86.7333250
  70.6946040  69.1986740  85.9699360  70.2118360  68.5892800  87.2689560
  69.4565060  70.4853890  74.4070110  70.2144420  70.5982770  73.8334140
  68.9942230  71.3223090  74.3613540  75.9978870  72.5993160  77.3972420
  75.1853380  72.2250050  77.0568300  76.5020510  71.8438240  77.6993610
  71.8290210  71.0117940  72.9472080  72.3582970  70.2247740  72.8180030
  72.4618530  71.6909130  73.1807610  74.0228050  70.7493080  76.0017470
  73.3930790  70.0480390  76.1687600  73.4833190  71.5097210  75.7850630
  74.1483610  70.0277060  88.4369960  73.8667880  70.5310660  87.6730780
  74.5303310  69.2298810  88.0712090  71.8041090  79.5521940  62.1370200
  70.9725970  79.2970650  62.5366710  72.4122070  79.6232710  62.8728120
  70.2133040  74.5123830  55.9212590  69.3249740  74.8539800  55.8192470
  70.4974230  74.3124150  55.0293420  68.1766050  77.1129480  61.8052290
  68.7482160  76.3451680  61.8055930  68.1767590  77.4118240  60.8958900
  69.4190920  72.5213840  63.5921220  69.2393760  71.6239590  63.8723980
  69.0171000  73.0685710  64.2668170  72.3894430  73.0955330  56.9550970
  72.4961180  73.9959060  57.2619730  71.4786790  73.0473300  56.6645620
  70.0377590  75.0174340  62.2003560  70.7187700  75.2812710  62.8190960
  69.7225640  74.1775210  62.5341570  74.2302160  76.0641700  61.2876150
  74.7380380  76.5622670  61.9281170  74.7615400  75.2876900  61.1115510
  72.5138260  70.7040260  65.5539570  72.5156700  71.2212650  64.7485470
  71.6842570  70.2270440  65.5309500  72.1953590  72.4150220  63.5610020
  72.5370400  73.2592270  63.2663890  71.2569400  72.5633960  63.6775360
  75.8781480  69.9032490  59.8854610  76.1856460  69.3479380  59.1690110
  74.9482180  70.0376950  59.7027600  73.8718880  78.4946060  59.4034460
  73.4675880  77.7823310  58.9080360  73.9582000  78.1499300  60.2922500
  72.5847500  75.2689270  63.1833500  73.1362090  75.3784610  62.4086750
  73.0991010  75.6426870  63.8988730  72.2590230  78.7908630  66.7938840
  72.1198000  79.6631430  67.1626240  71.3771590  78.4481440  66.6486780
  70.5723510  77.3891040  56.9041110  70.4521110  78.1153130  56.2922380
  70.2624400  76.6193950  56.4269020  73.0387170  70.7326110  60.2864780
  72.5955320  71.5135650  59.9549300  73.5972160  71.0556000  60.9935720
  77.3256980  73.5994630  65.8900100  76.8636350  73.8077650  66.7020040
  76.9235090  72.7853980  65.5870770  76.1545990  70.3536810  55.1670610
  75.5300170  70.3496680  55.8923920  76.0676110  69.4867770  54.7706580
  75.0763070  71.2773440  62.1454380  75.3735400  72.1836270  62.0646400
  75.6248630  70.7892220  61.5313950  72.8301390  75.8559680  58.0146030
  72.6042310  75.6396850  58.9192650  72.0493920  76.2888140  57.6692000
  75.2700600  76.7545260  68.6806300  75.1744200  75.8139990  68.5306700
  76.1132580  76.9760330  68.2854370  70.4011140  73.1658930  66.8340080
  70.0074530  74.0134140  67.0412860  69.7129540  72.5285300  67.0248720
  67.7028190  71.0887390  60.8670160  67.4141240  71.6590250  61.5795140
  68.4473950  70.6091840  61.2301390  67.8898420  75.0307510  52.0772880
  67.8073090  75.9738270  52.2187870  67.5381480  74.8882420  51.1985230
  75.6896550  73.7646540  61.1443230  75.6932610  73.3236490  60.2947770
  76.5847670  74.0863870  61.2515050  71.5398930  73.6473030  60.1037440
  71.1998980  74.1248260  60.8604490  70.7776250  73.1938150  59.7438540
  75.7516700  74.7658620  54.1349990  75.8729520  74.7245100  55.0835810
  75.3665210  75.6282770  53.9796720  74.7638200  77.0759760  53.5333290
  74.1955100  76.6278010  52.9069200  75.4727200  77.4352540  52.9998440
  75.9904520  77.8248320  62.8908640  76.3574650  77.3506890  63.6369980
  75.8009580  78.6989890  63.2316980  68.8545010  72.5692010  59.0202110
  68.5691930  72.2047680  59.8580730  68.7923870  71.8372470  58.4065250
  73.7803890  76.8656960  65.2092850  73.4760960  77.7448940  65.4343210
  74.7350350  76.9256750  65.2450290  69.8367620  77.7059700  66.3564210
  69.4782560  78.3713550  66.9437550  69.5422180  76.8743250  66.7276830
  73.0380740  78.1643940  69.2403760  72.7380880  78.3101120  68.3431580
  73.8091980  77.6049230  69.1477150  68.3475670  77.7050960  52.9798810
  69.2170520  77.9875760  53.2634730  67.8565990  78.5186830  52.8647620
  75.5110480  79.0924170  57.1007090  75.9673260  79.9029420  57.3267280
  75.1598690  78.7747310  57.9325580  71.4122260  69.4361820  57.5729610
  71.2836890  69.4279720  58.5214530  70.5884280  69.7744910  57.2220620
  68.4116190  71.1952940  67.0336310  67.6974710  71.3949860  67.6388920
  68.8311230  70.4192510  67.4051110  70.3322180  79.5224430  55.1080870
  69.7250130  80.2623330  55.1176170  70.8071530  79.6123790  54.2819070
  75.2401030  74.9218140  57.0083200  74.5317180  75.3904480  57.4496810
  75.5245510  74.2640150  57.6428390  76.8656960  76.3414840  65.0075730
  77.3642210  76.8160660  65.6727580  77.0079910  75.4178360  65.2145760
  73.4436050  73.2303220  54.3833910  74.2926580  73.6673370  54.3174100
  73.0767320  73.5423480  55.2105970  72.3427470  79.4835580  52.8569440
  73.1090740  79.3716940  53.4194870  72.4202160  78.7873550  52.2046210
  71.0374230  76.9160650  53.5402330  71.1177820  75.9688160  53.6519730
  71.9293980  77.2467530  53.6462990  68.5645030  78.7375570  68.7758500
  69.0684050  78.1582850  69.3474730  67.8252450  79.0215800  69.3134870
  70.5968110  76.8805160  69.6708570  70.6373450  76.5819030  70.5793800
  71.4513610  77.2812770  69.5116090  74.3746500  79.4800710  54.8312080
  74.7962920  79.3140580  55.6743470  74.4997340  78.6700940  54.3367220
  72.5373920  75.4597260  67.6383060  72.0070380  74.9688210  67.0106400
  73.2061990  75.8881460  67.1040990  76.8874140  78.5038320  52.0789180
  77.4079800  77.7887340  51.7130330  77.5342540  79.1424190  52.3789690
  73.0246220  72.4259630  67.7180350  72.9303090  71.8080380  66.9931220
  72.4443610  73.1525920  67.4910260  75.7907660  70.9832870  64.7507740
  75.3424960  71.0057130  63.9053290  75.1572860  70.5851890  65.3478040
  73.2705400  75.5533940  51.7770240  73.0694460  74.6901300  52.1383580
  73.0997450  75.4667300  50.8391840  75.2999880  74.1524730  68.0133840
  75.8899570  73.8440580  68.7011660  74.4820120  73.6804480  68.1693740
  72.0688200  72.6534560  51.7648120  72.3714100  72.6601990  50.8567270
  72.8082790  72.3032420  52.2615780  75.2873130  71.5969180  52.7504320
  74.9395130  70.9193170  52.1706770  75.4885900  71.1358690  53.5647710
  68.6278770  78.1256830  59.1468690  67.9727610  77.8568470  58.5028390
  69.4656720  78.0161310  58.6970670  69.6654700  78.5109400  63.6872030
  70.0327740  78.4236800  64.5668050  69.0965520  77.7475950  63.5878890
  69.2170700  75.4218490  67.5930450  68.3226750  75.3885250  67.9324160
  69.7568250  75.6205280  68.3581700  67.8416850  75.3355760  55.0894020
  66.9380930  75.5985960  54.9145680  68.3257470  75.6066930  54.3093980
  70.3844060  74.3921300  52.9988400  71.0935760  73.9704520  52.5135680
  69.6684000  74.4596530  52.3671750  70.0318220  70.4460630  52.0391050
  70.7546350  70.9869570  52.3572270  70.3042740  70.1724050  51.1632590
  69.7210410  69.6966820  61.9413670  70.3686600  69.1464200  61.5008830
  70.1412250  69.9509970  62.7629480  69.4742410  69.8522490  64.6838990
  69.1257230  70.3086310  65.4497170  69.1430110  68.9579620  64.7661420
  70.1463050  69.3798690  67.9589760  70.6946040  69.1986740  67.1955870
  70.2118360  68.5892800  68.4946070  69.4565060  70.4853890  55.6326620
  70.2144420  70.5982770  55.0590650  68.9942230  71.3223090  55.5870050
  75.9978870  72.5993160  58.6228930  75.1853380  72.2250050  58.2824810
  76.5020510  71.8438240  58.9250120  71.8290210  71.0117940  54.1728590
  72.3582970  70.2247740  54.0436540  72.4618530  71.6909130  54.4064120
  74.0228050  70.7493080  57.2273980  73.3930790  70.0480390  57.3944110
  73.4833190  71.5097210  57.0107140  74.1483610  70.0277060  69.6626470
  73.8667880  70.5310660  68.8987290  74.5303310  69.2298810  69.2968600
  71.8041090  79.5521940  43.3626710  70.9725970  79.2970650  43.7623220
  72.4122070  79.6232710  44.0984630  70.2133040  74.5123830  37.1469100
  69.3249740  74.8539800  37.0448980  70.4974230  74.3124150  36.2549930
  68.1766050  77.1129480  43.0308800  68.7482160  76.3451680  43.0312440
  68.1767590  77.4118240  42.1215410  69.4190920  72.5213840  44.8177730
  69.2393760  71.6239590  45.0980490  69.0171000  73.0685710  45.4924680
  72.3894430  73.0955330  38.1807480  72.4961180  73.9959060  38.4876240
  71.4786790  73.0473300  37.8902130  70.0377590  75.0174340  43.4260070
  70.7187700  75.2812710  44.0447470  69.7225640  74.1775210  43.7598080
  74.2302160  76.0641700  42.5132660  74.7380380  76.5622670  43.1537680
  74.7615400  75.2876900  42.3372020  72.5138260  70.7040260  46.7796080
  72.5156700  71.2212650  45.9741980  71.6842570  70.2270440  46.7566010
  72.1953590  72.4150220  44.7866530  72.5370400  73.2592270  44.4920400
  71.2569400  72.5633960  44.9031870  75.8781480  69.9032490  41.1111120
  76.1856460  69.3479380  40.3946620  74.9482180  70.0376950  40.9284110
  73.8718880  78.4946060  40.6290970  73.4675880  77.7823310  40.1336870
  73.9582000  78.1499300  41.5179010  72.5847500  75.2689270  44.4090010
  73.1362090  75.3784610  43.6343260  73.0991010  75.6426870  45.1245240
  72.2590230  78.7908630  48.0195350  72.1198000  79.6631430  48.3882750
  71.3771590  78.4481440  47.8743290  70.5723510  77.3891040  38.1297620
  70.4521110  78.1153130  37.5178890  70.2624400  76.6193950  37.6525530
  73.0387170  70.7326110  41.5121290  72.5955320  71.5135650  41.1805810
  73.5972160  71.0556000  42.2192230  77.3256980  73.5994630  47.1156610
  76.8636350  73.8077650  47.9276550  76.9235090  72.7853980  46.8127280
  76.1545990  70.3536810  36.3927120  75.5300170  70.3496680  37.1180430
  76.0676110  69.4867770  35.9963090  75.0763070  71.2773440  43.3710890
  75.3735400  72.1836270  43.2902910  75.6248630  70.7892220  42.7570460
  72.8301390  75.8559680  39.2402540  72.6042310  75.6396850  40.1449160
  72.0493920  76.2888140  38.8948510  75.2700600  76.7545260  49.9062810
  75.1744200  75.8139990  49.7563210  76.1132580  76.9760330  49.5110880
  70.4011140  73.1658930  48.0596590  70.0074530  74.0134140  48.2669370
  69.7129540  72.5285300  48.2505230  67.7028190  71.0887390  42.0926670
  67.4141240  71.6590250  42.8051650  68.4473950  70.6091840  42.4557900
  67.8898420  75.0307510  33.3029390  67.8073090  75.9738270  33.4444380
  67.5381480  74.8882420  32.4241740  75.6896550  73.7646540  42.3699740
  75.6932610  73.3236490  41.5204280  76.5847670  74.0863870  42.4771560
  71.5398930  73.6473030  41.3293950  71.1998980  74.1248260  42.0861000
  70.7776250  73.1938150  40.9695050  75.7516700  74.7658620  35.3606500
  75.8729520  74.7245100  36.3092320  75.3665210  75.6282770  35.2053230
  74.7638200  77.0759760  34.7589800  74.1955100  76.6278010  34.1325710
  75.4727200  77.4352540  34.2254950  75.9904520  77.8248320  44.1165150
  76.3574650  77.3506890  44.8626490  75.8009580  78.6989890  44.4573490
  68.8545010  72.5692010  40.2458620  68.5691930  72.2047680  41.0837240
  68.7923870  71.8372470  39.6321760  73.7803890  76.8656960  46.4349360
  73.4760960  77.7448940  46.6599720  74.7350350  76.9256750  46.4706800
  69.8367620  77.7059700  47.5820720  69.4782560  78.3713550  48.1694060
  69.5422180  76.8743250  47.9533340  73.0380740  78.1643940  50.4660270
  72.7380880  78.3101120  49.5688090  73.8091980  77.6049230  50.3733660
  68.3475670  77.7050960  34.2055320  69.2170520  77.9875760  34.4891240
  67.8565990  78.5186830  34.0904130  75.5110480  79.0924170  38.3263600
  75.9673260  79.9029420  38.5523790  75.1598690  78.7747310  39.1582090
  71.4122260  69.4361820  38.7986120  71.2836890  69.4279720  39.7471040
  70.5884280  69.7744910  38.4477130  68.4116190  71.1952940  48.2592820
  67.6974710  71.3949860  48.8645430  68.8311230  70.4192510  48.6307620
  70.3322180  79.5224430  36.3337380  69.7250130  80.2623330  36.3432680
  70.8071530  79.6123790  35.5075580  75.2401030  74.9218140  38.2339710
  74.5317180  75.3904480  38.6753320  75.5245510  74.2640150  38.8684900
  76.8656960  76.3414840  46.2332240  77.3642210  76.8160660  46.8984090
  77.0079910  75.4178360  46.4402270  73.4436050  73.2303220  35.6090420
  74.2926580  73.6673370  35.5430610  73.0767320  73.5423480  36.4362480
  72.3427470  79.4835580  34.0825950  73.1090740  79.3716940  34.6451380
  72.4202160  78.7873550  33.4302720  71.0374230  76.9160650  34.7658840
  71.1177820  75.9688160  34.8776240  71.9293980  77.2467530  34.8719500
  68.5645030  78.7375570  50.0015010  69.0684050  78.1582850  50.5731240
  67.8252450  79.0215800  50.5391380  70.5968110  76.8805160  50.8965080
  70.6373450  76.5819030  51.8050310  71.4513610  77.2812770  50.7372600
  74.3746500  79.4800710  36.0568590  74.7962920  79.3140580  36.8999980
  74.4997340  78.6700940  35.5623730  72.5373920  75.4597260  48.8639570
  72.0070380  74.9688210  48.2362910  73.2061990  75.8881460  48.3297500
  76.8874140  78.5038320  33.3045690  77.4079800  77.7887340  32.9386840
  77.5342540  79.1424190  33.6046200  73.0246220  72.4259630  48.9436860
  72.9303090  71.8080380  48.2187730  72.4443610  73.1525920  48.7166770
  75.7907660  70.9832870  45.9764250  75.3424960  71.0057130  45.1309800
  75.1572860  70.5851890  46.5734550  73.2705400  75.5533940  33.0026750
  73.0694460  74.6901300  33.3640090  73.0997450  75.4667300  32.0648350
  75.2999880  74.1524730  49.2390350  75.8899570  73.8440580  49.9268170
  74.4820120  73.6804480  49.3950250  72.0688200  72.6534560  32.9904630
  72.3714100  72.6601990  32.0823780  72.8082790  72.3032420  33.4872290
  75.2873130  71.5969180  33.9760830  74.9395130  70.9193170  33.3963280
  75.4885900  71.1358690  34.7904220  68.6278770  78.1256830  40.3725200
  67.9727610  77.8568470  39.7284900  69.4656720  78.0161310  39.9227180
  69.6654700  78.5109400  44.9128540  70.0327740  78.4236800  45.7924560
  69.0965520  77.7475950  44.8135400  69.2170700  75.4218490  48.8186960
  68.3226750  75.3885250  49.1580670  69.7568250  75.6205280  49.5838210
  67.8416850  75.3355760  36.3150530  66.9380930  75.5985960  36.1402190
  68.3257470  75.6066930  35.5350490  70.3844060  74.3921300  34.2244910
  71.0935760  73.9704520  33.7392190  69.6684000  74.4596530  33.5928260
  70.0318220  70.4460630  33.2647560  70.7546350  70.9869570  33.5828780
  70.3042740  70.1724050  32.3889100  69.7210410  69.6966820  43.1670180
  70.3686600  69.1464200  42.7265340  70.1412250  69.9509970  43.9885990
  69.4742410  69.8522490  45.9095500  69.1257230  70.3086310  46.6753680
  69.1430110  68.9579620  45.9917930  70.1463050  69.3798690  49.1846270
  70.6946040  69.1986740  48.4212380  70.2118360  68.5892800  49.7202580
  69.4565060  70.4853890  36.8583130  70.2144420  70.5982770  36.2847160
  68.9942230  71.3223090  36.8126560  75.9978870  72.5993160  39.8485440
  75.1853380  72.2250050  39.5081320  76.5020510  71.8438240  40.1506630
  71.8290210  71.0117940  35.3985100  72.3582970  70.2247740  35.2693050
  72.4618530  71.6909130  35.6320630  74.0228050  70.7493080  38.4530490
  73.3930790  70.0480390  38.6200620  73.4833190  71.5097210  38.2363650
  74.1483610  70.0277060  50.8882980  73.8667880  70.5310660  50.1243800
  74.5303310  69.2298810  50.5225110  71.8041090  79.5521940  24.5883220
  70.9725970  79.2970650  24.9879730  72.4122070  79.6232710  25.3241140
  70.2133040  74.5123830  18.3725610  69.3249740  74.8539800  18.2705490
  70.4974230  74.3124150  17.4806440  68.1766050  77.1129480  24.2565310
  68.7482160  76.3451680  24.2568950  68.1767590  77.4118240  23.3471920
  69.4190920  72.5213840  26.0434240  69.2393760  71.6239590  26.3237000
  69.0171000  73.0685710  26.7181190  72.3894430  73.0955330  19.4063990
  72.4961180  73.9959060  19.7132750  71.4786790  73.0473300  19.1158640
  70.0377590  75.0174340  24.6516580  70.7187700  75.2812710  25.2703980
  69.7225640  74.1775210  24.9854590  74.2302160  76.0641700  23.7389170
  74.7380380  76.5622670  24.3794190  74.7615400  75.2876900  23.5628530
  72.5138260  70.7040260  28.0052590  72.5156700  71.2212650  27.1998490
  71.6842570  70.2270440  27.9822520  72.1953590  72.4150220  26.0123040
  72.5370400  73.2592270  25.7176910  71.2569400  72.5633960  26.1288380
  75.8781480  69.9032490  22.3367630  76.1856460  69.3479380  21.6203130
  74.9482180  70.0376950  22.1540620  73.8718880  78.4946060  21.8547480
  73.4675880  77.7823310  21.3593380  73.9582000  78.1499300  22.7435520
  72.5847500  75.2689270  25.6346520  73.1362090  75.3784610  24.8599770
  73.0991010  75.6426870  26.3501750  72.2590230  78.7908630  29.2451860
  72.1198000  79.6631430  29.6139260  71.3771590  78.4481440  29.0999800
  70.5723510  77.3891040  19.3554130  70.4521110  78.1153130  18.7435400
  70.2624400  76.6193950  18.8782040  73.0387170  70.7326110  22.7377800
  72.5955320  71.5135650  22.4062320  73.5972160  71.0556000  23.4448740
  77.3256980  73.5994630  28.3413120  76.8636350  73.8077650  29.1533060
  76.9235090  72.7853980  28.0383790  76.1545990  70.3536810  17.6183630
  75.5300170  70.3496680  18.3436940  76.0676110  69.4867770  17.2219600
  75.0763070  71.2773440  24.5967400  75.3735400  72.1836270  24.5159420
  75.6248630  70.7892220  23.9826970  72.8301390  75.8559680  20.4659050
  72.6042310  75.6396850  21.3705670  72.0493920  76.2888140  20.1205020
  75.2700600  76.7545260  31.1319320  75.1744200  75.8139990  30.9819720
  76.1132580  76.9760330  30.7367390  70.4011140  73.1658930  29.2853100
  70.0074530  74.0134140  29.4925880  69.7129540  72.5285300  29.4761740
  67.7028190  71.0887390  23.3183180  67.4141240  71.6590250  24.0308160
  68.4473950  70.6091840  23.6814410  67.8898420  75.0307510  14.5285900
  67.8073090  75.9738270  14.6700890  67.5381480  74.8882420  13.6498250
  75.6896550  73.7646540  23.5956250  75.6932610  73.3236490  22.7460790
  76.5847670  74.0863870  23.7028070  71.5398930  73.6473030  22.5550460
  71.1998980  74.1248260  23.3117510  70.7776250  73.1938150  22.1951560
  75.7516700  74.7658620  16.5863010  75.8729520  74.7245100  17.5348830
  75.3665210  75.6282770  16.4309740  74.7638200  77.0759760  15.9846310
  74.1955100  76.6278010  15.3582220  75.4727200  77.4352540  15.4511460
  75.9904520  77.8248320  25.3421660  76.3574650  77.3506890  26.0883000
  75.8009580  78.6989890  25.6830000  68.8545010  72.5692010  21.4715130
  68.5691930  72.2047680  22.3093750  68.7923870  71.8372470  20.8578270
  73.7803890  76.8656960  27.6605870  73.4760960  77.7448940  27.8856230
  74.7350350  76.9256750  27.6963310  69.8367620  77.7059700  28.8077230
  69.4782560  78.3713550  29.3950570  69.5422180  76.8743250  29.1789850
  73.0380740  78.1643940  31.6916780  72.7380880  78.3101120  30.7944600
  73.8091980  77.6049230  31.5990170  68.3475670  77.7050960  15.4311830
  69.2170520  77.9875760  15.7147750  67.8565990  78.5186830  15.3160640
  75.5110480  79.0924170  19.5520110  75.9673260  79.9029420  19.7780300
  75.1598690  78.7747310  20.3838600  71.4122260  69.4361820  20.0242630
  71.2836890  69.4279720  20.9727550  70.5884280  69.7744910  19.6733640
  68.4116190  71.1952940  29.4849330  67.6974710  71.3949860  30.0901940
  68.8311230  70.4192510  29.8564130  70.3322180  79.5224430  17.5593890
  69.7250130  80.2623330  17.5689190  70.8071530  79.6123790  16.7332090
  75.2401030  74.9218140  19.4596220  74.5317180  75.3904480  19.9009830
  75.5245510  74.2640150  20.0941410  76.8656960  76.3414840  27.4588750
  77.3642210  76.8160660  28.1240600  77.0079910  75.4178360  27.6658780
  73.4436050  73.2303220  16.8346930  74.2926580  73.6673370  16.7687120
  73.0767320  73.5423480  17.6618990  72.3427470  79.4835580  15.3082460
  73.1090740  79.3716940  15.8707890  72.4202160  78.7873550  14.6559230
  71.0374230  76.9160650  15.9915350  71.1177820  75.9688160  16.1032750
  71.9293980  77.2467530  16.0976010  68.5645030  78.7375570  31.2271520
  69.0684050  78.1582850  31.7987750  67.8252450  79.0215800  31.7647890
  70.5968110  76.8805160  32.1221590  70.6373450  76.5819030  33.0306820
  71.4513610  77.2812770  31.9629110  74.3746500  79.4800710  17.2825100
  74.7962920  79.3140580  18.1256490  74.4997340  78.6700940  16.7880240
  72.5373920  75.4597260  30.0896080  72.0070380  74.9688210  29.4619420
  73.2061990  75.8881460  29.5554010  76.8874140  78.5038320  14.5302200
  77.4079800  77.7887340  14.1643350  77.5342540  79.1424190  14.8302710
  73.0246220  72.4259630  30.1693370  72.9303090  71.8080380  29.4444240
  72.4443610  73.1525920  29.9423280  75.7907660  70.9832870  27.2020760
  75.3424960  71.0057130  26.3566310  75.1572860  70.5851890  27.7991060
  73.2705400  75.5533940  14.2283260  73.0694460  74.6901300  14.5896600
  73.0997450  75.4667300  13.2904860  75.2999880  74.1524730  30.4646860
  75.8899570  73.8440580  31.1524680  74.4820120  73.6804480  30.6206760
  72.0688200  72.6534560  14.2161140  72.3714100  72.6601990  13.3080290
  72.8082790  72.3032420  14.7128800  75.2873130  71.5969180  15.2017340
  74.9395130  70.9193170  14.6219790  75.4885900  71.1358690  16.0160730
  68.6278770  78.1256830  21.5981710  67.9727610  77.8568470  20.9541410
  69.4656720  78.0161310  21.1483690  69.6654700  78.5109400  26.1385050
  70.0327740  78.4236800  27.0181070  69.0965520  77.7475950  26.0391910
  69.2170700  75.4218490  30.0443470  68.3226750  75.3885250  30.3837180
  69.7568250  75.6205280  30.8094720  67.8416850  75.3355760  17.5407040
  66.9380930  75.5985960  17.3658700  68.3257470  75.6066930  16.7607000
  70.3844060  74.3921300  15.4501420  71.0935760  73.9704520  14.9648700
  69.6684000  74.4596530  14.8184770  70.0318220  70.4460630  14.4904070
  70.7546350  70.9869570  14.8085290  70.3042740  70.1724050  13.6145610
  69.7210410  69.6966820  24.3926690  70.3686600  69.1464200  23.9521850
  70.1412250  69.9509970  25.2142500  69.4742410  69.8522490  27.1352010
  69.1257230  70.3086310  27.9010190  69.1430110  68.9579620  27.2174440
  70.1463050  69.3798690  30.4102780  70.6946040  69.1986740  29.6468890
  70.2118360  68.5892800  30.9459090  69.4565060  70.4853890  18.0839640
  70.2144420  70.5982770  17.5103670  68.9942230  71.3223090  18.0383070
  75.9978870  72.5993160  21.0741950  75.1853380  72.2250050  20.7337830
  76.5020510  71.8438240  21.3763140  71.8290210  71.0117940  16.6241610
  72.3582970  70.2247740  16.4949560  72.4618530  71.6909130  16.8577140
  74.0228050  70.7493080  19.6787000  73.3930790  70.0480390  19.8457130
  73.4833190  71.5097210  19.4620160  74.1483610  70.0277060  32.1139490
  73.8667880  70.5310660  31.3500310  74.5303310  69.2298810  31.7481620
  71.8041090  79.5521940   5.8139730  70.9725970  79.2970650   6.2136240
  72.4122070  79.6232710   6.5497650  68.1766050  77.1129480   5.4821820
  68.7482160  76.3451680   5.4825460  68.1767590  77.4118240   4.5728430
  69.4190920  72.5213840   7.2690750  69.2393760  71.6239590   7.5493510
  69.0171000  73.0685710   7.9437700  70.0377590  75.0174340   5.8773090
  70.7187700  75.2812710   6.4960490  69.7225640  74.1775210   6.2111100
  74.2302160  76.0641700   4.9645680  74.7380380  76.5622670   5.6050700
  74.7615400  75.2876900   4.7885040  72.5138260  70.7040260   9.2309100
  72.5156700  71.2212650   8.4255000  71.6842570  70.2270440   9.2079030
  72.1953590  72.4150220   7.2379550  72.5370400  73.2592270   6.9433420
  71.2569400  72.5633960   7.3544890  75.8781480  69.9032490   3.5624140
  76.1856460  69.3479380   2.8459640  74.9482180  70.0376950   3.3797130
  73.8718880  78.4946060   3.0803990  73.4675880  77.7823310   2.5849890
  73.9582000  78.1499300   3.9692030  72.5847500  75.2689270   6.8603030
  73.1362090  75.3784610   6.0856280  73.0991010  75.6426870   7.5758260
  72.2590230  78.7908630  10.4708370  72.1198000  79.6631430  10.8395770
  71.3771590  78.4481440  10.3256310  73.0387170  70.7326110   3.9634310
  72.5955320  71.5135650   3.6318830  73.5972160  71.0556000   4.6705250
  77.3256980  73.5994630   9.5669630  76.8636350  73.8077650  10.3789570
  76.9235090  72.7853980   9.2640300  75.0763070  71.2773440   5.8223910
  75.3735400  72.1836270   5.7415930  75.6248630  70.7892220   5.2083480
  75.2700600  76.7545260  12.3575830  75.1744200  75.8139990  12.2076230
  76.1132580  76.9760330  11.9623900  70.4011140  73.1658930  10.5109610
  70.0074530  74.0134140  10.7182390  69.7129540  72.5285300  10.7018250
  67.7028190  71.0887390   4.5439690  67.4141240  71.6590250   5.2564670
  68.4473950  70.6091840   4.9070920  75.6896550  73.7646540   4.8212760
  75.6932610  73.3236490   3.9717300  76.5847670  74.0863870   4.9284580
  71.5398930  73.6473030   3.7806970  71.1998980  74.1248260   4.5374020
  70.7776250  73.1938150   3.4208070  75.9904520  77.8248320   6.5678170
  76.3574650  77.3506890   7.3139510  75.8009580  78.6989890   6.9086510
  68.8545010  72.5692010   2.6971640  68.5691930  72.2047680   3.5350260
  68.7923870  71.8372470   2.0834780  73.7803890  76.8656960   8.8862380
  73.4760960  77.7448940   9.1112740  74.7350350  76.9256750   8.9219820
  69.8367620  77.7059700  10.0333740  69.4782560  78.3713550  10.6207080
  69.5422180  76.8743250  10.4046360  73.0380740  78.1643940  12.9173290
  72.7380880  78.3101120  12.0201110  73.8091980  77.6049230  12.8246680
  68.4116190  71.1952940  10.7105840  67.6974710  71.3949860  11.3158450
  68.8311230  70.4192510  11.0820640  76.8656960  76.3414840   8.6845260
  77.3642210  76.8160660   9.3497110  77.0079910  75.4178360   8.8915290
  68.5645030  78.7375570  12.4528030  69.0684050  78.1582850  13.0244260
  67.8252450  79.0215800  12.9904400  70.5968110  76.8805160  13.3478100
  70.6373450  76.5819030  14.2563330  71.4513610  77.2812770  13.1885620
  72.5373920  75.4597260  11.3152590  72.0070380  74.9688210  10.6875930
  73.2061990  75.8881460  10.7810520  73.0246220  72.4259630  11.3949880
  72.9303090  71.8080380  10.6700750  72.4443610  73.1525920  11.1679790
  75.7907660  70.9832870   8.4277270  75.3424960  71.0057130   7.5822820
  75.1572860  70.5851890   9.0247570  75.2999880  74.1524730  11.6903370
  75.8899570  73.8440580  12.3781190  74.4820120  73.6804480  11.8463270
  68.6278770  78.1256830   2.8238220  67.9727610  77.8568470   2.1797920
  69.4656720  78.0161310   2.3740200  69.6654700  78.5109400   7.3641560
  70.0327740  78.4236800   8.2437580  69.0965520  77.7475950   7.2648420
  69.2170700  75.4218490  11.2699980  68.3226750  75.3885250  11.6093690
  69.7568250  75.6205280  12.0351230  69.7210410  69.6966820   5.6183200
  70.3686600  69.1464200   5.1778360  70.1412250  69.9509970   6.4399010
  69.4742410  69.8522490   8.3608520  69.1257230  70.3086310   9.1266700
  69.1430110  68.9579620   8.4430950  70.1463050  69.3798690  11.6359290
  70.6946040  69.1986740  10.8725400  70.2118360  68.5892800  12.1715600
  75.9978870  72.5993160   2.2998460  75.1853380  72.2250050   1.9594340
  76.5020510  71.8438240   2.6019650  74.1483610  70.0277060  13.3396000
  73.8667880  70.5310660  12.5756820  74.5303310  69.2298810  12.9738130
  71.8041090  60.7778450  99.6857180  70.9725970  60.5227160 100.0853690
  72.4122070  60.8489220 100.4215100  71.7842350  64.8118540  99.8815200
  72.0870390  63.9216280  99.7025420  72.5285940  65.3688760  99.6537450
  70.2133040  55.7380340  93.4699570  69.3249740  56.0796310  93.3679450
  70.4974230  55.5380660  92.5780400  68.1766050  58.3385990  99.3539270
  68.7482160  57.5708190  99.3542910  68.1767590  58.6374750  98.4445880
  72.3894430  54.3211840  94.5037950  72.4961180  55.2215570  94.8106710
  71.4786790  54.2729810  94.2132600  70.0377590  56.2430850  99.7490540
  70.7187700  56.5069220 100.3677940  69.7225640  55.4031720 100.0828550
  74.2302160  57.2898210  98.8363130  74.7380380  57.7879180  99.4768150
  74.7615400  56.5133410  98.6602490  72.1953590  53.6406730 101.1097000
  72.5370400  54.4848780 100.8150870  71.2569400  53.7890470 101.2262340
  68.2692550  62.7272610  91.9756080  67.8920530  63.2159710  91.2440980
  68.5265620  63.3997890  92.6062610  75.8781480  51.1289000  97.4341590
  76.1856460  50.5735890  96.7177090  74.9482180  51.2633460  97.2514580
  73.8718880  59.7202570  96.9521440  73.4675880  59.0079820  96.4567340
  73.9582000  59.3755810  97.8409480  74.3400580  63.4070130  99.1160650
  74.0428870  62.8015600  98.4368430  75.2900400  63.4447440  99.0050010
  72.5847500  56.4945780 100.7320480  73.1362090  56.6041120  99.9573730
  73.0991010  56.8683380 101.4475710  70.5723510  58.6147550  94.4528090
  70.4521110  59.3409640  93.8409360  70.2624400  57.8450460  93.9756000
  68.2108880  61.7862690 100.2596730  68.2889300  61.9211460  99.3152450
  68.8250560  61.0778580 100.4524850  69.4556510  63.4862880  96.6702910
  69.0484590  63.6277470  95.8156510  70.3469520  63.2023040  96.4674120
  73.7278170  67.7008660  94.7825580  73.5520650  66.7844200  94.5693380
  72.8733910  68.0595950  95.0223380  73.0387170  51.9582620  97.8351760
  72.5955320  52.7392160  97.5036280  73.5972160  52.2812510  98.5422700
  76.1545990  51.5793320  92.7157590  75.5300170  51.5753190  93.4410900
  76.0676110  50.7124280  92.3193560  75.0763070  52.5029950  99.6941360
  75.3735400  53.4092780  99.6133380  75.6248630  52.0148730  99.0800930
  72.8301390  57.0816190  95.5633010  72.6042310  56.8653360  96.4679630
  72.0493920  57.5144650  95.2178980  67.7028190  52.3143900  98.4157140
  67.4141240  52.8846760  99.1282120  68.4473950  51.8348350  98.7788370
  67.8898420  56.2564020  89.6259860  67.8073090  57.1994780  89.7674850
  67.5381480  56.1138930  88.7472210  75.6896550  54.9903050  98.6930210
  75.6932610  54.5493000  97.8434750  76.5847670  55.3120380  98.8002030
  71.5398930  54.8729540  97.6524420  71.1998980  55.3504770  98.4091470
  70.7776250  54.4194660  97.2925520  75.7516700  55.9915130  91.6836970
  75.8729520  55.9501610  92.6322790  75.3665210  56.8539280  91.5283700
  74.7638200  58.3016270  91.0820270  74.1955100  57.8534520  90.4556180
  75.4727200  58.6609050  90.5485420  75.9904520  59.0504830 100.4395620
  76.3574650  58.5763400 101.1856960  75.8009580  59.9246400 100.7803960
  68.8545010  53.7948520  96.5689090  68.5691930  53.4304190  97.4067710
  68.7923870  53.0628980  95.9552230  72.3085680  62.2974460  93.3546680
  71.5347940  61.7572080  93.1945400  73.0380310  61.7781070  93.0164440
  72.3523080  61.9654840  96.9925490  72.8701750  61.1623100  96.9382380
  71.9007100  61.9033980  97.8342320  77.2392580  63.2321120  92.2652790
  77.5808280  63.9763350  91.7696110  76.4105290  63.5452240  92.6277620
  76.2083270  63.3134650  95.0368710  76.8954400  63.8603860  95.4176300
  75.4215690  63.8575380  95.0718320  68.3475670  58.9307470  90.5285790
  69.2170520  59.2132270  90.8121710  67.8565990  59.7443340  90.4134600
  75.5110480  60.3180680  94.6494070  75.9673260  61.1285930  94.8754260
  75.1598690  60.0003820  95.4812560  71.4122260  50.6618330  95.1216590
  71.2836890  50.6536230  96.0701510  70.5884280  51.0001420  94.7707600
  68.7146920  68.1434850  91.0947420  69.0744560  68.7424190  90.4404690
  68.5739260  68.6894740  91.8682450  74.7315540  65.5266050  91.9121090
  74.7225640  66.2595740  91.2965600  73.8113900  65.2797630  92.0048050
  70.3322180  60.7480940  92.6567850  69.7250130  61.4879840  92.6663150
  70.8071530  60.8380300  91.8306050  75.2401030  56.1474650  94.5570180
  74.5317180  56.6160990  94.9983790  75.5245510  55.4896660  95.1915370
  76.3593250  68.1080610  95.2693950  76.6134750  68.0702000  94.3473320
  75.4105730  67.9813940  95.2622200  73.4436050  54.4559730  91.9320890
  74.2926580  54.8929880  91.8661080  73.0767320  54.7679990  92.7592950
  72.3427470  60.7092090  90.4056420  73.1090740  60.5973450  90.9681850
  72.4202160  60.0130060  89.7533190  71.0374230  58.1417160  91.0889310
  71.1177820  57.1944670  91.2006710  71.9293980  58.4724040  91.1949970
  71.8388940  68.2912550  98.1923850  72.5751420  67.7428010  98.4632420
  72.2229860  69.1568560  98.0529840  68.7234420  64.3586120  94.0665360
  67.7974200  64.6007260  94.0570770  69.1890850  65.1860380  93.9450110
  74.9491250  67.4642860  90.0149420  75.7419860  67.7531690  89.5631210
  74.4295600  67.0335030  89.3361900  75.4668650  62.6846270  89.8791770
  75.3619290  62.0698620  90.6053150  75.2992870  62.1612160  89.0954780
  74.3746500  60.7057220  92.3799060  74.7962920  60.5397090  93.2230450
  74.4997340  59.8957450  91.8854200  76.8874140  59.7294830  89.6276160
  77.4079800  59.0143850  89.2617310  77.5342540  60.3680700  89.9276670
  73.2705400  56.7790450  89.3257220  73.0694460  55.9157810  89.6870560
  73.0997450  56.6923810  88.3878820  72.0688200  53.8791070  89.3135100
  72.3714100  53.8858500  88.4054250  72.8082790  53.5288930  89.8102760
  75.2873130  52.8225690  90.2991300  74.9395130  52.1449680  89.7193750
  75.4885900  52.3615200  91.1134690  71.0918330  63.1833490  90.1464900
  71.5293200  63.7263160  90.8022480  71.5766060  62.3580440  90.1561240
  68.3064130  65.9722520  97.5985160  68.6367140  65.1043580  97.3663800
  68.7355130  66.1781040  98.4290120  72.9026050  64.3031530  95.2587130
  72.6021590  64.1796500  96.1591040  72.7963540  63.4440120  94.8502860
  68.7954340  66.8393110 100.3366790  68.3585330  67.0193910 101.1690940
  69.3632020  67.5967730 100.1948510  68.6278770  59.3513340  96.6955670
  67.9727610  59.0824980  96.0515370  69.4656720  59.2417820  96.2457650
  67.8416850  56.5612270  92.6381000  66.9380930  56.8242470  92.4632660
  68.3257470  56.8323440  91.8580960  70.3844060  55.6177810  90.5475380
  71.0935760  55.1961030  90.0622660  69.6684000  55.6853040  89.9158730
  70.0318220  51.6717140  89.5878030  70.7546350  52.2126080  89.9059250
  70.3042740  51.3980560  88.7119570  69.7210410  50.9223330  99.4900650
  70.3686600  50.3720710  99.0495810  70.1412250  51.1766480 100.3116460
  74.1552140  66.7764230  99.2534390  74.6717160  66.1651590  98.7282650
  74.8049520  67.2793010  99.7445400  76.8947640  67.6672720 100.0803370
  77.1825450  67.4127020  99.2036380  77.4070860  67.1150080 100.6708940
  68.8337040  67.8793620  95.6781740  68.6659080  67.2464300  96.3763630
  67.9671550  68.0853020  95.3275930  69.4565060  51.7110400  93.1813600
  70.2144420  51.8239280  92.6077630  68.9942230  52.5479600  93.1357030
  75.9978870  53.8249670  96.1715910  75.1853380  53.4506560  95.8311790
  76.5020510  53.0694750  96.4737100  70.4399740  66.5726850  93.1231880
  69.9147360  66.9534880  92.4193840  70.3644320  67.1977620  93.8441590
  71.8290210  52.2374450  91.7215570  72.3582970  51.4504250  91.5923520
  72.4618530  52.9165640  91.9551100  74.0228050  51.9749590  94.7760960
  73.3930790  51.2736900  94.9431090  73.4833190  52.7353720  94.5594120
  73.0392710  68.5209230  91.9981130  73.7711530  68.2368510  91.4505020
  73.2986380  68.2822510  92.8880510  72.2007500  64.6373960  92.0027460
  71.5716380  65.1059060  92.5513290  72.3155330  63.7923180  92.4373650
  71.8041090  60.7778450  80.9113690  70.9725970  60.5227160  81.3110200
  72.4122070  60.8489220  81.6471610  71.7842350  64.8118540  81.1071710
  72.0870390  63.9216280  80.9281930  72.5285940  65.3688760  80.8793960
  70.2133040  55.7380340  74.6956080  69.3249740  56.0796310  74.5935960
  70.4974230  55.5380660  73.8036910  68.1766050  58.3385990  80.5795780
  68.7482160  57.5708190  80.5799420  68.1767590  58.6374750  79.6702390
  69.4190920  53.7470350  82.3664710  69.2393760  52.8496100  82.6467470
  69.0171000  54.2942220  83.0411660  72.3894430  54.3211840  75.7294460
  72.4961180  55.2215570  76.0363220  71.4786790  54.2729810  75.4389110
  70.0377590  56.2430850  80.9747050  70.7187700  56.5069220  81.5934450
  69.7225640  55.4031720  81.3085060  74.2302160  57.2898210  80.0619640
  74.7380380  57.7879180  80.7024660  74.7615400  56.5133410  79.8859000
  72.5138260  51.9296770  84.3283060  72.5156700  52.4469160  83.5228960
  71.6842570  51.4526950  84.3052990  73.7641110  61.5691950  82.5056560
  73.4310490  62.1960870  83.1477630  73.9407790  62.0953830  81.7258230
  72.1953590  53.6406730  82.3353510  72.5370400  54.4848780  82.0407380
  71.2569400  53.7890470  82.4518850  72.9760210  63.5372750  84.3205740
  73.5934210  64.2123830  84.0390190  72.1153330  63.9460730  84.2293240
  68.2692550  62.7272610  73.2012590  67.8920530  63.2159710  72.4697490
  68.5265620  63.3997890  73.8319120  75.8781480  51.1289000  78.6598100
  76.1856460  50.5735890  77.9433600  74.9482180  51.2633460  78.4771090
  73.8718880  59.7202570  78.1777950  73.4675880  59.0079820  77.6823850
  73.9582000  59.3755810  79.0665990  74.3400580  63.4070130  80.3417160
  74.0428870  62.8015600  79.6624940  75.2900400  63.4447440  80.2306520
  72.5847500  56.4945780  81.9576990  73.1362090  56.6041120  81.1830240
  73.0991010  56.8683380  82.6732220  73.4319010  63.1451820  86.9924960
  72.5347540  63.3691790  87.2398360  73.4571880  63.2686760  86.0436360
  72.2590230  60.0165140  85.5682330  72.1198000  60.8887940  85.9369730
  71.3771590  59.6737950  85.4230270  74.0570580  65.9586840  87.7767480
  74.0286010  66.3629790  86.9095910  73.8935550  65.0297200  87.6139080
  70.5723510  58.6147550  75.6784600  70.4521110  59.3409640  75.0665870
  70.2624400  57.8450460  75.2012510  68.2108880  61.7862690  81.4853240
  68.2889300  61.9211460  80.5408960  68.8250560  61.0778580  81.6781360
  69.4556510  63.4862880  77.8959420  69.0484590  63.6277470  77.0413020
  70.3469520  63.2023040  77.6930630  73.7278170  67.7008660  76.0082090
  73.5520650  66.7844200  75.7949890  72.8733910  68.0595950  76.2479890
  68.2668400  62.8276860  84.0247700  68.4299440  62.3582220  83.2067070
  68.7320850  62.3200420  84.6896540  73.0387170  51.9582620  79.0608270
  72.5955320  52.7392160  78.7292790  73.5972160  52.2812510  79.7679210
  77.3256980  54.8251140  84.6643590  76.8636350  55.0334160  85.4763530
  76.9235090  54.0110490  84.3614260  76.1545990  51.5793320  73.9414100
  75.5300170  51.5753190  74.6667410  76.0676110  50.7124280  73.5450070
  75.0763070  52.5029950  80.9197870  75.3735400  53.4092780  80.8389890
  75.6248630  52.0148730  80.3057440  72.8301390  57.0816190  76.7889520
  72.6042310  56.8653360  77.6936140  72.0493920  57.5144650  76.4435490
  75.2700600  57.9801770  87.4549790  75.1744200  57.0396500  87.3050190
  76.1132580  58.2016840  87.0597860  70.4011140  54.3915440  85.6083570
  70.0074530  55.2390650  85.8156350  69.7129540  53.7541810  85.7992210
  67.7028190  52.3143900  79.6413650  67.4141240  52.8846760  80.3538630
  68.4473950  51.8348350  80.0044880  67.8898420  56.2564020  70.8516370
  67.8073090  57.1994780  70.9931360  67.5381480  56.1138930  69.9728720
  75.6896550  54.9903050  79.9186720  75.6932610  54.5493000  79.0691260
  76.5847670  55.3120380  80.0258540  71.5398930  54.8729540  78.8780930
  71.1998980  55.3504770  79.6347980  70.7776250  54.4194660  78.5182030
  75.7516700  55.9915130  72.9093480  75.8729520  55.9501610  73.8579300
  75.3665210  56.8539280  72.7540210  74.7638200  58.3016270  72.3076780
  74.1955100  57.8534520  71.6812690  75.4727200  58.6609050  71.7741930
  69.8407380  62.2028290  86.1843510  69.4562170  61.5621960  86.7826470
  70.1519570  62.9064410  86.7538240  75.9904520  59.0504830  81.6652130
  76.3574650  58.5763400  82.4113470  75.8009580  59.9246400  82.0060470
  68.8545010  53.7948520  77.7945600  68.5691930  53.4304190  78.6324220
  68.7923870  53.0628980  77.1808740  73.7803890  58.0913470  83.9836340
  73.4760960  58.9705450  84.2086700  74.7350350  58.1513260  84.0193780
  72.3085680  62.2974460  74.5803190  71.5347940  61.7572080  74.4201910
  73.0380310  61.7781070  74.2420950  72.3523080  61.9654840  78.2182000
  72.8701750  61.1623100  78.1638890  71.9007100  61.9033980  79.0598830
  77.2392580  63.2321120  73.4909300  77.5808280  63.9763350  72.9952620
  76.4105290  63.5452240  73.8534130  69.8367620  58.9316210  85.1307700
  69.4782560  59.5970060  85.7181040  69.5422180  58.0999760  85.5020320
  73.0380740  59.3900450  88.0147250  72.7380880  59.5357630  87.1175070
  73.8091980  58.8305740  87.9220640  76.2083270  63.3134650  76.2625220
  76.8954400  63.8603860  76.6432810  75.4215690  63.8575380  76.2974830
  68.3475670  58.9307470  71.7542300  69.2170520  59.2132270  72.0378220
  67.8565990  59.7443340  71.6391110  75.5110480  60.3180680  75.8750580
  75.9673260  61.1285930  76.1010770  75.1598690  60.0003820  76.7069070
  71.4122260  50.6618330  76.3473100  71.2836890  50.6536230  77.2958020
  70.5884280  51.0001420  75.9964110  68.7146920  68.1434850  72.3203930
  69.0744560  68.7424190  71.6661200  68.5739260  68.6894740  73.0938960
  68.4116190  52.4209450  85.8079800  67.6974710  52.6206370  86.4132410
  68.8311230  51.6449020  86.1794600  68.6988780  66.4089710  86.7946330
  68.8079900  65.4684450  86.6541720  68.0469340  66.6744460  86.1460060
  76.6901370  64.6805600  88.1944450  76.3698240  63.9614840  88.7390140
  76.0159730  65.3560670  88.2680510  74.7315540  65.5266050  73.1377600
  74.7225640  66.2595740  72.5222110  73.8113900  65.2797630  73.2304560
  70.3322180  60.7480940  73.8824360  69.7250130  61.4879840  73.8919660
  70.8071530  60.8380300  73.0562560  75.2401030  56.1474650  75.7826690
  74.5317180  56.6160990  76.2240300  75.5245510  55.4896660  76.4171880
  76.8656960  57.5671350  83.7819220  77.3642210  58.0417170  84.4471070
  77.0079910  56.6434870  83.9889250  76.3593250  68.1080610  76.4950460
  76.6134750  68.0702000  75.5729830  75.4105730  67.9813940  76.4878710
  73.4436050  54.4559730  73.1577400  74.2926580  54.8929880  73.0917590
  73.0767320  54.7679990  73.9849460  72.3427470  60.7092090  71.6312930
  73.1090740  60.5973450  72.1938360  72.4202160  60.0130060  70.9789700
  71.0374230  58.1417160  72.3145820  71.1177820  57.1944670  72.4263220
  71.9293980  58.4724040  72.4206480  71.8388940  68.2912550  79.4180360
  72.5751420  67.7428010  79.6888930  72.2229860  69.1568560  79.2786350
  68.7234420  64.3586120  75.2921870  67.7974200  64.6007260  75.2827280
  69.1890850  65.1860380  75.1706620  70.8447220  67.4758620  88.6065940
  71.6459950  67.7970670  89.0201340  70.3299040  67.1154200  89.3285850
  74.9491250  67.4642860  71.2405930  75.7419860  67.7531690  70.7887720
  74.4295600  67.0335030  70.5618410  68.5645030  59.9632080  87.5501990
  69.0684050  59.3839360  88.1218220  67.8252450  60.2472310  88.0878360
  75.4668650  62.6846270  71.1048280  75.3619290  62.0698620  71.8309660
  75.2992870  62.1612160  70.3211290  75.6182970  61.3703070  87.0837510
  74.8528640  61.9388070  86.9992180  75.7998930  61.0779280  86.1905740
  70.5968110  58.1061670  88.4452060  70.6373450  57.8075540  89.3537290
  71.4513610  58.5069280  88.2859580  74.3746500  60.7057220  73.6055570
  74.7962920  60.5397090  74.4486960  74.4997340  59.8957450  73.1110710
  72.5373920  56.6853770  86.4126550  72.0070380  56.1944720  85.7849890
  73.2061990  57.1137970  85.8784480  76.8874140  59.7294830  70.8532670
  77.4079800  59.0143850  70.4873820  77.5342540  60.3680700  71.1533180
  73.0246220  53.6516140  86.4923840  72.9303090  53.0336890  85.7674710
  72.4443610  54.3782430  86.2653750  75.7907660  52.2089380  83.5251230
  75.3424960  52.2313640  82.6796780  75.1572860  51.8108400  84.1221530
  76.1967210  61.1043710  84.1463670  76.6155320  61.9476440  83.9739910
  75.2775840  61.2415750  83.9170450  73.2705400  56.7790450  70.5513730
  73.0694460  55.9157810  70.9127070  73.0997450  56.6923810  69.6135330
  74.0474630  67.4096720  85.2621400  73.5095720  68.1342780  84.9430100
  74.3008590  66.9327060  84.4718740  75.2999880  55.3781240  86.7877330
  75.8899570  55.0697090  87.4755150  74.4820120  54.9060990  86.9437230
  72.0688200  53.8791070  70.5391610  72.3714100  53.8858500  69.6310760
  72.8082790  53.5288930  71.0359270  76.9036840  68.6447930  85.5208050
  76.8295540  69.5483070  85.8280420  76.0015680  68.3259830  85.4930120
  75.2873130  52.8225690  71.5247810  74.9395130  52.1449680  70.9450260
  75.4885900  52.3615200  72.3391200  71.0918330  63.1833490  71.3721410
  71.5293200  63.7263160  72.0278990  71.5766060  62.3580440  71.3817750
  68.3064130  65.9722520  78.8241670  68.6367140  65.1043580  78.5920310
  68.7355130  66.1781040  79.6546630  72.9026050  64.3031530  76.4843640
  72.6021590  64.1796500  77.3847550  72.7963540  63.4440120  76.0759370
  68.7954340  66.8393110  81.5623300  68.3585330  67.0193910  82.3947450
  69.3632020  67.5967730  81.4205020  68.6278770  59.3513340  77.9212180
  67.9727610  59.0824980  77.2771880  69.4656720  59.2417820  77.4714160
  69.6654700  59.7365910  82.4615520  70.0327740  59.6493310  83.3411540
  69.0965520  58.9732460  82.3622380  69.2170700  56.6475000  86.3673940
  68.3226750  56.6141760  86.7067650  69.7568250  56.8461790  87.1325190
  67.8416850  56.5612270  73.8637510  66.9380930  56.8242470  73.6889170
  68.3257470  56.8323440  73.0837470  70.3844060  55.6177810  71.7731890
  71.0935760  55.1961030  71.2879170  69.6684000  55.6853040  71.1415240
  70.0318220  51.6717140  70.8134540  70.7546350  52.2126080  71.1315760
  70.3042740  51.3980560  69.9376080  69.7210410  50.9223330  80.7157160
  70.3686600  50.3720710  80.2752320  70.1412250  51.1766480  81.5372970
  69.4742410  51.0779000  83.4582480  69.1257230  51.5342820  84.2240660
  69.1430110  50.1836130  83.5404910  71.0806780  64.2498600  87.6235670
  71.0376410  63.8791510  88.5050130  71.2117790  65.1876170  87.7637490
  74.7812810  65.8058190  83.2245390  74.5404170  66.0732750  82.3375910
  75.7215450  65.9763920  83.2796250  70.1463050  50.6055200  86.7333250
  70.6946040  50.4243250  85.9699360  70.2118360  49.8149310  87.2689560
  70.9194810  67.1960850  84.7433450  70.3255130  67.0645550  85.4823490
  70.9118650  66.3598990  84.2775550  70.5507040  64.5619230  83.6941490
  69.8241100  63.9424520  83.6267440  70.6116190  64.9559840  82.8239570
  74.1552140  66.7764230  80.4790900  74.6717160  66.1651590  79.9539160
  74.8049520  67.2793010  80.9701910  76.8947640  67.6672720  81.3059880
  77.1825450  67.4127020  80.4292890  77.4070860  67.1150080  81.8965450
  68.8337040  67.8793620  76.9038250  68.6659080  67.2464300  77.6020140
  67.9671550  68.0853020  76.5532440  69.4565060  51.7110400  74.4070110
  70.2144420  51.8239280  73.8334140  68.9942230  52.5479600  74.3613540
  75.9978870  53.8249670  77.3972420  75.1853380  53.4506560  77.0568300
  76.5020510  53.0694750  77.6993610  70.4399740  66.5726850  74.3488390
  69.9147360  66.9534880  73.6450350  70.3644320  67.1977620  75.0698100
  71.8290210  52.2374450  72.9472080  72.3582970  51.4504250  72.8180030
  72.4618530  52.9165640  73.1807610  74.0228050  51.9749590  76.0017470
  73.3930790  51.2736900  76.1687600  73.4833190  52.7353720  75.7850630
  74.1483610  51.2533570  88.4369960  73.8667880  51.7567170  87.6730780
  74.5303310  50.4555320  88.0712090  73.0392710  68.5209230  73.2237640
  73.7711530  68.2368510  72.6761530  73.2986380  68.2822510  74.1137020
  72.2007500  64.6373960  73.2283970  71.5716380  65.1059060  73.7769800
  72.3155330  63.7923180  73.6630160  71.8041090  60.7778450  62.1370200
  70.9725970  60.5227160  62.5366710  72.4122070  60.8489220  62.8728120
  71.7842350  64.8118540  62.3328220  72.0870390  63.9216280  62.1538440
  72.5285940  65.3688760  62.1050470  70.2133040  55.7380340  55.9212590
  69.3249740  56.0796310  55.8192470  70.4974230  55.5380660  55.0293420
  68.1766050  58.3385990  61.8052290  68.7482160  57.5708190  61.8055930
  68.1767590  58.6374750  60.8958900  69.4190920  53.7470350  63.5921220
  69.2393760  52.8496100  63.8723980  69.0171000  54.2942220  64.2668170
  72.3894430  54.3211840  56.9550970  72.4961180  55.2215570  57.2619730
  71.4786790  54.2729810  56.6645620  70.0377590  56.2430850  62.2003560
  70.7187700  56.5069220  62.8190960  69.7225640  55.4031720  62.5341570
  74.2302160  57.2898210  61.2876150  74.7380380  57.7879180  61.9281170
  74.7615400  56.5133410  61.1115510  72.5138260  51.9296770  65.5539570
  72.5156700  52.4469160  64.7485470  71.6842570  51.4526950  65.5309500
  73.7641110  61.5691950  63.7313070  73.4310490  62.1960870  64.3734140
  73.9407790  62.0953830  62.9514740  72.1953590  53.6406730  63.5610020
  72.5370400  54.4848780  63.2663890  71.2569400  53.7890470  63.6775360
  72.9760210  63.5372750  65.5462250  73.5934210  64.2123830  65.2646700
  72.1153330  63.9460730  65.4549750  68.2692550  62.7272610  54.4269100
  67.8920530  63.2159710  53.6954000  68.5265620  63.3997890  55.0575630
  75.8781480  51.1289000  59.8854610  76.1856460  50.5735890  59.1690110
  74.9482180  51.2633460  59.7027600  73.8718880  59.7202570  59.4034460
  73.4675880  59.0079820  58.9080360  73.9582000  59.3755810  60.2922500
  74.3400580  63.4070130  61.5673670  74.0428870  62.8015600  60.8881450
  75.2900400  63.4447440  61.4563030  72.5847500  56.4945780  63.1833500
  73.1362090  56.6041120  62.4086750  73.0991010  56.8683380  63.8988730
  73.4319010  63.1451820  68.2181470  72.5347540  63.3691790  68.4654870
  73.4571880  63.2686760  67.2692870  72.2590230  60.0165140  66.7938840
  72.1198000  60.8887940  67.1626240  71.3771590  59.6737950  66.6486780
  74.0570580  65.9586840  69.0023990  74.0286010  66.3629790  68.1352420
  73.8935550  65.0297200  68.8395590  70.5723510  58.6147550  56.9041110
  70.4521110  59.3409640  56.2922380  70.2624400  57.8450460  56.4269020
  68.2108880  61.7862690  62.7109750  68.2889300  61.9211460  61.7665470
  68.8250560  61.0778580  62.9037870  69.4556510  63.4862880  59.1215930
  69.0484590  63.6277470  58.2669530  70.3469520  63.2023040  58.9187140
  73.7278170  67.7008660  57.2338600  73.5520650  66.7844200  57.0206400
  72.8733910  68.0595950  57.4736400  68.2668400  62.8276860  65.2504210
  68.4299440  62.3582220  64.4323580  68.7320850  62.3200420  65.9153050
  73.0387170  51.9582620  60.2864780  72.5955320  52.7392160  59.9549300
  73.5972160  52.2812510  60.9935720  77.3256980  54.8251140  65.8900100
  76.8636350  55.0334160  66.7020040  76.9235090  54.0110490  65.5870770
  76.1545990  51.5793320  55.1670610  75.5300170  51.5753190  55.8923920
  76.0676110  50.7124280  54.7706580  75.0763070  52.5029950  62.1454380
  75.3735400  53.4092780  62.0646400  75.6248630  52.0148730  61.5313950
  72.8301390  57.0816190  58.0146030  72.6042310  56.8653360  58.9192650
  72.0493920  57.5144650  57.6692000  75.2700600  57.9801770  68.6806300
  75.1744200  57.0396500  68.5306700  76.1132580  58.2016840  68.2854370
  70.4011140  54.3915440  66.8340080  70.0074530  55.2390650  67.0412860
  69.7129540  53.7541810  67.0248720  67.7028190  52.3143900  60.8670160
  67.4141240  52.8846760  61.5795140  68.4473950  51.8348350  61.2301390
  67.8898420  56.2564020  52.0772880  67.8073090  57.1994780  52.2187870
  67.5381480  56.1138930  51.1985230  75.6896550  54.9903050  61.1443230
  75.6932610  54.5493000  60.2947770  76.5847670  55.3120380  61.2515050
  71.5398930  54.8729540  60.1037440  71.1998980  55.3504770  60.8604490
  70.7776250  54.4194660  59.7438540  75.7516700  55.9915130  54.1349990
  75.8729520  55.9501610  55.0835810  75.3665210  56.8539280  53.9796720
  74.7638200  58.3016270  53.5333290  74.1955100  57.8534520  52.9069200
  75.4727200  58.6609050  52.9998440  69.8407380  62.2028290  67.4100020
  69.4562170  61.5621960  68.0082980  70.1519570  62.9064410  67.9794750
  75.9904520  59.0504830  62.8908640  76.3574650  58.5763400  63.6369980
  75.8009580  59.9246400  63.2316980  68.8545010  53.7948520  59.0202110
  68.5691930  53.4304190  59.8580730  68.7923870  53.0628980  58.4065250
  73.7803890  58.0913470  65.2092850  73.4760960  58.9705450  65.4343210
  74.7350350  58.1513260  65.2450290  72.3085680  62.2974460  55.8059700
  71.5347940  61.7572080  55.6458420  73.0380310  61.7781070  55.4677460
  72.3523080  61.9654840  59.4438510  72.8701750  61.1623100  59.3895400
  71.9007100  61.9033980  60.2855340  77.2392580  63.2321120  54.7165810
  77.5808280  63.9763350  54.2209130  76.4105290  63.5452240  55.0790640
  69.8367620  58.9316210  66.3564210  69.4782560  59.5970060  66.9437550
  69.5422180  58.0999760  66.7276830  73.0380740  59.3900450  69.2403760
  72.7380880  59.5357630  68.3431580  73.8091980  58.8305740  69.1477150
  76.2083270  63.3134650  57.4881730  76.8954400  63.8603860  57.8689320
  75.4215690  63.8575380  57.5231340  68.3475670  58.9307470  52.9798810
  69.2170520  59.2132270  53.2634730  67.8565990  59.7443340  52.8647620
  75.5110480  60.3180680  57.1007090  75.9673260  61.1285930  57.3267280
  75.1598690  60.0003820  57.9325580  71.4122260  50.6618330  57.5729610
  71.2836890  50.6536230  58.5214530  70.5884280  51.0001420  57.2220620
  68.7146920  68.1434850  53.5460440  69.0744560  68.7424190  52.8917710
  68.5739260  68.6894740  54.3195470  68.4116190  52.4209450  67.0336310
  67.6974710  52.6206370  67.6388920  68.8311230  51.6449020  67.4051110
  68.6988780  66.4089710  68.0202840  68.8079900  65.4684450  67.8798230
  68.0469340  66.6744460  67.3716570  76.6901370  64.6805600  69.4200960
  76.3698240  63.9614840  69.9646650  76.0159730  65.3560670  69.4937020
  74.7315540  65.5266050  54.3634110  74.7225640  66.2595740  53.7478620
  73.8113900  65.2797630  54.4561070  70.3322180  60.7480940  55.1080870
  69.7250130  61.4879840  55.1176170  70.8071530  60.8380300  54.2819070
  75.2401030  56.1474650  57.0083200  74.5317180  56.6160990  57.4496810
  75.5245510  55.4896660  57.6428390  76.8656960  57.5671350  65.0075730
  77.3642210  58.0417170  65.6727580  77.0079910  56.6434870  65.2145760
  76.3593250  68.1080610  57.7206970  76.6134750  68.0702000  56.7986340
  75.4105730  67.9813940  57.7135220  73.4436050  54.4559730  54.3833910
  74.2926580  54.8929880  54.3174100  73.0767320  54.7679990  55.2105970
  72.3427470  60.7092090  52.8569440  73.1090740  60.5973450  53.4194870
  72.4202160  60.0130060  52.2046210  71.0374230  58.1417160  53.5402330
  71.1177820  57.1944670  53.6519730  71.9293980  58.4724040  53.6462990
  71.8388940  68.2912550  60.6436870  72.5751420  67.7428010  60.9145440
  72.2229860  69.1568560  60.5042860  68.7234420  64.3586120  56.5178380
  67.7974200  64.6007260  56.5083790  69.1890850  65.1860380  56.3963130
  70.8447220  67.4758620  69.8322450  71.6459950  67.7970670  70.2457850
  70.3299040  67.1154200  70.5542360  74.9491250  67.4642860  52.4662440
  75.7419860  67.7531690  52.0144230  74.4295600  67.0335030  51.7874920
  68.5645030  59.9632080  68.7758500  69.0684050  59.3839360  69.3474730
  67.8252450  60.2472310  69.3134870  75.4668650  62.6846270  52.3304790
  75.3619290  62.0698620  53.0566170  75.2992870  62.1612160  51.5467800
  75.6182970  61.3703070  68.3094020  74.8528640  61.9388070  68.2248690
  75.7998930  61.0779280  67.4162250  70.5968110  58.1061670  69.6708570
  70.6373450  57.8075540  70.5793800  71.4513610  58.5069280  69.5116090
  74.3746500  60.7057220  54.8312080  74.7962920  60.5397090  55.6743470
  74.4997340  59.8957450  54.3367220  72.5373920  56.6853770  67.6383060
  72.0070380  56.1944720  67.0106400  73.2061990  57.1137970  67.1040990
  76.8874140  59.7294830  52.0789180  77.4079800  59.0143850  51.7130330
  77.5342540  60.3680700  52.3789690  73.0246220  53.6516140  67.7180350
  72.9303090  53.0336890  66.9931220  72.4443610  54.3782430  67.4910260
  75.7907660  52.2089380  64.7507740  75.3424960  52.2313640  63.9053290
  75.1572860  51.8108400  65.3478040  76.1967210  61.1043710  65.3720180
  76.6155320  61.9476440  65.1996420  75.2775840  61.2415750  65.1426960
  73.2705400  56.7790450  51.7770240  73.0694460  55.9157810  52.1383580
  73.0997450  56.6923810  50.8391840  74.0474630  67.4096720  66.4877910
  73.5095720  68.1342780  66.1686610  74.3008590  66.9327060  65.6975250
  75.2999880  55.3781240  68.0133840  75.8899570  55.0697090  68.7011660
  74.4820120  54.9060990  68.1693740  72.0688200  53.8791070  51.7648120
  72.3714100  53.8858500  50.8567270  72.8082790  53.5288930  52.2615780
  76.9036840  68.6447930  66.7464560  76.8295540  69.5483070  67.0536930
  76.0015680  68.3259830  66.7186630  75.2873130  52.8225690  52.7504320
  74.9395130  52.1449680  52.1706770  75.4885900  52.3615200  53.5647710
  71.0918330  63.1833490  52.5977920  71.5293200  63.7263160  53.2535500
  71.5766060  62.3580440  52.6074260  68.3064130  65.9722520  60.0498180
  68.6367140  65.1043580  59.8176820  68.7355130  66.1781040  60.8803140
  72.9026050  64.3031530  57.7100150  72.6021590  64.1796500  58.6104060
  72.7963540  63.4440120  57.3015880  68.7954340  66.8393110  62.7879810
  68.3585330  67.0193910  63.6203960  69.3632020  67.5967730  62.6461530
  68.6278770  59.3513340  59.1468690  67.9727610  59.0824980  58.5028390
  69.4656720  59.2417820  58.6970670  69.6654700  59.7365910  63.6872030
  70.0327740  59.6493310  64.5668050  69.0965520  58.9732460  63.5878890
  69.2170700  56.6475000  67.5930450  68.3226750  56.6141760  67.9324160
  69.7568250  56.8461790  68.3581700  67.8416850  56.5612270  55.0894020
  66.9380930  56.8242470  54.9145680  68.3257470  56.8323440  54.3093980
  70.3844060  55.6177810  52.9988400  71.0935760  55.1961030  52.5135680
  69.6684000  55.6853040  52.3671750  70.0318220  51.6717140  52.0391050
  70.7546350  52.2126080  52.3572270  70.3042740  51.3980560  51.1632590
  69.7210410  50.9223330  61.9413670  70.3686600  50.3720710  61.5008830
  70.1412250  51.1766480  62.7629480  69.4742410  51.0779000  64.6838990
  69.1257230  51.5342820  65.4497170  69.1430110  50.1836130  64.7661420
  71.0806780  64.2498600  68.8492180  71.0376410  63.8791510  69.7306640
  71.2117790  65.1876170  68.9894000  74.7812810  65.8058190  64.4501900
  74.5404170  66.0732750  63.5632420  75.7215450  65.9763920  64.5052760
  70.1463050  50.6055200  67.9589760  70.6946040  50.4243250  67.1955870
  70.2118360  49.8149310  68.4946070  70.9194810  67.1960850  65.9689960
  70.3255130  67.0645550  66.7080000  70.9118650  66.3598990  65.5032060
  70.5507040  64.5619230  64.9198000  69.8241100  63.9424520  64.8523950
  70.6116190  64.9559840  64.0496080  74.1552140  66.7764230  61.7047410
  74.6717160  66.1651590  61.1795670  74.8049520  67.2793010  62.1958420
  76.8947640  67.6672720  62.5316390  77.1825450  67.4127020  61.6549400
  77.4070860  67.1150080  63.1221960  68.8337040  67.8793620  58.1294760
  68.6659080  67.2464300  58.8276650  67.9671550  68.0853020  57.7788950
  69.4565060  51.7110400  55.6326620  70.2144420  51.8239280  55.0590650
  68.9942230  52.5479600  55.5870050  75.9978870  53.8249670  58.6228930
  75.1853380  53.4506560  58.2824810  76.5020510  53.0694750  58.9250120
  70.4399740  66.5726850  55.5744900  69.9147360  66.9534880  54.8706860
  70.3644320  67.1977620  56.2954610  71.8290210  52.2374450  54.1728590
  72.3582970  51.4504250  54.0436540  72.4618530  52.9165640  54.4064120
  74.0228050  51.9749590  57.2273980  73.3930790  51.2736900  57.3944110
  73.4833190  52.7353720  57.0107140  74.1483610  51.2533570  69.6626470
  73.8667880  51.7567170  68.8987290  74.5303310  50.4555320  69.2968600
  73.0392710  68.5209230  54.4494150  73.7711530  68.2368510  53.9018040
  73.2986380  68.2822510  55.3393530  72.2007500  64.6373960  54.4540480
  71.5716380  65.1059060  55.0026310  72.3155330  63.7923180  54.8886670
  71.8041090  60.7778450  43.3626710  70.9725970  60.5227160  43.7623220
  72.4122070  60.8489220  44.0984630  71.7842350  64.8118540  43.5584730
  72.0870390  63.9216280  43.3794950  72.5285940  65.3688760  43.3306980
  70.2133040  55.7380340  37.1469100  69.3249740  56.0796310  37.0448980
  70.4974230  55.5380660  36.2549930  68.1766050  58.3385990  43.0308800
  68.7482160  57.5708190  43.0312440  68.1767590  58.6374750  42.1215410
  69.4190920  53.7470350  44.8177730  69.2393760  52.8496100  45.0980490
  69.0171000  54.2942220  45.4924680  72.3894430  54.3211840  38.1807480
  72.4961180  55.2215570  38.4876240  71.4786790  54.2729810  37.8902130
  70.0377590  56.2430850  43.4260070  70.7187700  56.5069220  44.0447470
  69.7225640  55.4031720  43.7598080  74.2302160  57.2898210  42.5132660
  74.7380380  57.7879180  43.1537680  74.7615400  56.5133410  42.3372020
  72.5138260  51.9296770  46.7796080  72.5156700  52.4469160  45.9741980
  71.6842570  51.4526950  46.7566010  73.7641110  61.5691950  44.9569580
  73.4310490  62.1960870  45.5990650  73.9407790  62.0953830  44.1771250
  72.1953590  53.6406730  44.7866530  72.5370400  54.4848780  44.4920400
  71.2569400  53.7890470  44.9031870  72.9760210  63.5372750  46.7718760
  73.5934210  64.2123830  46.4903210  72.1153330  63.9460730  46.6806260
  68.2692550  62.7272610  35.6525610  67.8920530  63.2159710  34.9210510
  68.5265620  63.3997890  36.2832140  75.8781480  51.1289000  41.1111120
  76.1856460  50.5735890  40.3946620  74.9482180  51.2633460  40.9284110
  73.8718880  59.7202570  40.6290970  73.4675880  59.0079820  40.1336870
  73.9582000  59.3755810  41.5179010  74.3400580  63.4070130  42.7930180
  74.0428870  62.8015600  42.1137960  75.2900400  63.4447440  42.6819540
  72.5847500  56.4945780  44.4090010  73.1362090  56.6041120  43.6343260
  73.0991010  56.8683380  45.1245240  73.4319010  63.1451820  49.4437980
  72.5347540  63.3691790  49.6911380  73.4571880  63.2686760  48.4949380
  72.2590230  60.0165140  48.0195350  72.1198000  60.8887940  48.3882750
  71.3771590  59.6737950  47.8743290  74.0570580  65.9586840  50.2280500
  74.0286010  66.3629790  49.3608930  73.8935550  65.0297200  50.0652100
  70.5723510  58.6147550  38.1297620  70.4521110  59.3409640  37.5178890
  70.2624400  57.8450460  37.6525530  68.2108880  61.7862690  43.9366260
  68.2889300  61.9211460  42.9921980  68.8250560  61.0778580  44.1294380
  69.4556510  63.4862880  40.3472440  69.0484590  63.6277470  39.4926040
  70.3469520  63.2023040  40.1443650  73.7278170  67.7008660  38.4595110
  73.5520650  66.7844200  38.2462910  72.8733910  68.0595950  38.6992910
  68.2668400  62.8276860  46.4760720  68.4299440  62.3582220  45.6580090
  68.7320850  62.3200420  47.1409560  73.0387170  51.9582620  41.5121290
  72.5955320  52.7392160  41.1805810  73.5972160  52.2812510  42.2192230
  77.3256980  54.8251140  47.1156610  76.8636350  55.0334160  47.9276550
  76.9235090  54.0110490  46.8127280  76.1545990  51.5793320  36.3927120
  75.5300170  51.5753190  37.1180430  76.0676110  50.7124280  35.9963090
  75.0763070  52.5029950  43.3710890  75.3735400  53.4092780  43.2902910
  75.6248630  52.0148730  42.7570460  72.8301390  57.0816190  39.2402540
  72.6042310  56.8653360  40.1449160  72.0493920  57.5144650  38.8948510
  75.2700600  57.9801770  49.9062810  75.1744200  57.0396500  49.7563210
  76.1132580  58.2016840  49.5110880  70.4011140  54.3915440  48.0596590
  70.0074530  55.2390650  48.2669370  69.7129540  53.7541810  48.2505230
  67.7028190  52.3143900  42.0926670  67.4141240  52.8846760  42.8051650
  68.4473950  51.8348350  42.4557900  67.8898420  56.2564020  33.3029390
  67.8073090  57.1994780  33.4444380  67.5381480  56.1138930  32.4241740
  75.6896550  54.9903050  42.3699740  75.6932610  54.5493000  41.5204280
  76.5847670  55.3120380  42.4771560  71.5398930  54.8729540  41.3293950
  71.1998980  55.3504770  42.0861000  70.7776250  54.4194660  40.9695050
  75.7516700  55.9915130  35.3606500  75.8729520  55.9501610  36.3092320
  75.3665210  56.8539280  35.2053230  74.7638200  58.3016270  34.7589800
  74.1955100  57.8534520  34.1325710  75.4727200  58.6609050  34.2254950
  69.8407380  62.2028290  48.6356530  69.4562170  61.5621960  49.2339490
  70.1519570  62.9064410  49.2051260  75.9904520  59.0504830  44.1165150
  76.3574650  58.5763400  44.8626490  75.8009580  59.9246400  44.4573490
  68.8545010  53.7948520  40.2458620  68.5691930  53.4304190  41.0837240
  68.7923870  53.0628980  39.6321760  73.7803890  58.0913470  46.4349360
  73.4760960  58.9705450  46.6599720  74.7350350  58.1513260  46.4706800
  72.3085680  62.2974460  37.0316210  71.5347940  61.7572080  36.8714930
  73.0380310  61.7781070  36.6933970  72.3523080  61.9654840  40.6695020
  72.8701750  61.1623100  40.6151910  71.9007100  61.9033980  41.5111850
  77.2392580  63.2321120  35.9422320  77.5808280  63.9763350  35.4465640
  76.4105290  63.5452240  36.3047150  69.8367620  58.9316210  47.5820720
  69.4782560  59.5970060  48.1694060  69.5422180  58.0999760  47.9533340
  73.0380740  59.3900450  50.4660270  72.7380880  59.5357630  49.5688090
  73.8091980  58.8305740  50.3733660  76.2083270  63.3134650  38.7138240
  76.8954400  63.8603860  39.0945830  75.4215690  63.8575380  38.7487850
  68.3475670  58.9307470  34.2055320  69.2170520  59.2132270  34.4891240
  67.8565990  59.7443340  34.0904130  75.5110480  60.3180680  38.3263600
  75.9673260  61.1285930  38.5523790  75.1598690  60.0003820  39.1582090
  71.4122260  50.6618330  38.7986120  71.2836890  50.6536230  39.7471040
  70.5884280  51.0001420  38.4477130  68.7146920  68.1434850  34.7716950
  69.0744560  68.7424190  34.1174220  68.5739260  68.6894740  35.5451980
  68.4116190  52.4209450  48.2592820  67.6974710  52.6206370  48.8645430
  68.8311230  51.6449020  48.6307620  68.6988780  66.4089710  49.2459350
  68.8079900  65.4684450  49.1054740  68.0469340  66.6744460  48.5973080
  76.6901370  64.6805600  50.6457470  76.3698240  63.9614840  51.1903160
  76.0159730  65.3560670  50.7193530  74.7315540  65.5266050  35.5890620
  74.7225640  66.2595740  34.9735130  73.8113900  65.2797630  35.6817580
  70.3322180  60.7480940  36.3337380  69.7250130  61.4879840  36.3432680
  70.8071530  60.8380300  35.5075580  75.2401030  56.1474650  38.2339710
  74.5317180  56.6160990  38.6753320  75.5245510  55.4896660  38.8684900
  76.8656960  57.5671350  46.2332240  77.3642210  58.0417170  46.8984090
  77.0079910  56.6434870  46.4402270  76.3593250  68.1080610  38.9463480
  76.6134750  68.0702000  38.0242850  75.4105730  67.9813940  38.9391730
  73.4436050  54.4559730  35.6090420  74.2926580  54.8929880  35.5430610
  73.0767320  54.7679990  36.4362480  72.3427470  60.7092090  34.0825950
  73.1090740  60.5973450  34.6451380  72.4202160  60.0130060  33.4302720
  71.0374230  58.1417160  34.7658840  71.1177820  57.1944670  34.8776240
  71.9293980  58.4724040  34.8719500  71.8388940  68.2912550  41.8693380
  72.5751420  67.7428010  42.1401950  72.2229860  69.1568560  41.7299370
  68.7234420  64.3586120  37.7434890  67.7974200  64.6007260  37.7340300
  69.1890850  65.1860380  37.6219640  70.8447220  67.4758620  51.0578960
  71.6459950  67.7970670  51.4714360  70.3299040  67.1154200  51.7798870
  74.9491250  67.4642860  33.6918950  75.7419860  67.7531690  33.2400740
  74.4295600  67.0335030  33.0131430  68.5645030  59.9632080  50.0015010
  69.0684050  59.3839360  50.5731240  67.8252450  60.2472310  50.5391380
  75.4668650  62.6846270  33.5561300  75.3619290  62.0698620  34.2822680
  75.2992870  62.1612160  32.7724310  75.6182970  61.3703070  49.5350530
  74.8528640  61.9388070  49.4505200  75.7998930  61.0779280  48.6418760
  70.5968110  58.1061670  50.8965080  70.6373450  57.8075540  51.8050310
  71.4513610  58.5069280  50.7372600  74.3746500  60.7057220  36.0568590
  74.7962920  60.5397090  36.8999980  74.4997340  59.8957450  35.5623730
  72.5373920  56.6853770  48.8639570  72.0070380  56.1944720  48.2362910
  73.2061990  57.1137970  48.3297500  76.8874140  59.7294830  33.3045690
  77.4079800  59.0143850  32.9386840  77.5342540  60.3680700  33.6046200
  73.0246220  53.6516140  48.9436860  72.9303090  53.0336890  48.2187730
  72.4443610  54.3782430  48.7166770  75.7907660  52.2089380  45.9764250
  75.3424960  52.2313640  45.1309800  75.1572860  51.8108400  46.5734550
  76.1967210  61.1043710  46.5976690  76.6155320  61.9476440  46.4252930
  75.2775840  61.2415750  46.3683470  73.2705400  56.7790450  33.0026750
  73.0694460  55.9157810  33.3640090  73.0997450  56.6923810  32.0648350
  74.0474630  67.4096720  47.7134420  73.5095720  68.1342780  47.3943120
  74.3008590  66.9327060  46.9231760  75.2999880  55.3781240  49.2390350
  75.8899570  55.0697090  49.9268170  74.4820120  54.9060990  49.3950250
  72.0688200  53.8791070  32.9904630  72.3714100  53.8858500  32.0823780
  72.8082790  53.5288930  33.4872290  76.9036840  68.6447930  47.9721070
  76.8295540  69.5483070  48.2793440  76.0015680  68.3259830  47.9443140
  75.2873130  52.8225690  33.9760830  74.9395130  52.1449680  33.3963280
  75.4885900  52.3615200  34.7904220  71.0918330  63.1833490  33.8234430
  71.5293200  63.7263160  34.4792010  71.5766060  62.3580440  33.8330770
  68.3064130  65.9722520  41.2754690  68.6367140  65.1043580  41.0433330
  68.7355130  66.1781040  42.1059650  72.9026050  64.3031530  38.9356660
  72.6021590  64.1796500  39.8360570  72.7963540  63.4440120  38.5272390
  68.7954340  66.8393110  44.0136320  68.3585330  67.0193910  44.8460470
  69.3632020  67.5967730  43.8718040  68.6278770  59.3513340  40.3725200
  67.9727610  59.0824980  39.7284900  69.4656720  59.2417820  39.9227180
  69.6654700  59.7365910  44.9128540  70.0327740  59.6493310  45.7924560
  69.0965520  58.9732460  44.8135400  69.2170700  56.6475000  48.8186960
  68.3226750  56.6141760  49.1580670  69.7568250  56.8461790  49.5838210
  67.8416850  56.5612270  36.3150530  66.9380930  56.8242470  36.1402190
  68.3257470  56.8323440  35.5350490  70.3844060  55.6177810  34.2244910
  71.0935760  55.1961030  33.7392190  69.6684000  55.6853040  33.5928260
  70.0318220  51.6717140  33.2647560  70.7546350  52.2126080  33.5828780
  70.3042740  51.3980560  32.3889100  69.7210410  50.9223330  43.1670180
  70.3686600  50.3720710  42.7265340  70.1412250  51.1766480  43.9885990
  69.4742410  51.0779000  45.9095500  69.1257230  51.5342820  46.6753680
  69.1430110  50.1836130  45.9917930  71.0806780  64.2498600  50.0748690
  71.0376410  63.8791510  50.9563150  71.2117790  65.1876170  50.2150510
  74.7812810  65.8058190  45.6758410  74.5404170  66.0732750  44.7888930
  75.7215450  65.9763920  45.7309270  70.1463050  50.6055200  49.1846270
  70.6946040  50.4243250  48.4212380  70.2118360  49.8149310  49.7202580
  70.9194810  67.1960850  47.1946470  70.3255130  67.0645550  47.9336510
  70.9118650  66.3598990  46.7288570  70.5507040  64.5619230  46.1454510
  69.8241100  63.9424520  46.0780460  70.6116190  64.9559840  45.2752590
  74.1552140  66.7764230  42.9303920  74.6717160  66.1651590  42.4052180
  74.8049520  67.2793010  43.4214930  76.8947640  67.6672720  43.7572900
  77.1825450  67.4127020  42.8805910  77.4070860  67.1150080  44.3478470
  68.8337040  67.8793620  39.3551270  68.6659080  67.2464300  40.0533160
  67.9671550  68.0853020  39.0045460  69.4565060  51.7110400  36.8583130
  70.2144420  51.8239280  36.2847160  68.9942230  52.5479600  36.8126560
  75.9978870  53.8249670  39.8485440  75.1853380  53.4506560  39.5081320
  76.5020510  53.0694750  40.1506630  70.4399740  66.5726850  36.8001410
  69.9147360  66.9534880  36.0963370  70.3644320  67.1977620  37.5211120
  71.8290210  52.2374450  35.3985100  72.3582970  51.4504250  35.2693050
  72.4618530  52.9165640  35.6320630  74.0228050  51.9749590  38.4530490
  73.3930790  51.2736900  38.6200620  73.4833190  52.7353720  38.2363650
  74.1483610  51.2533570  50.8882980  73.8667880  51.7567170  50.1243800
  74.5303310  50.4555320  50.5225110  73.0392710  68.5209230  35.6750660
  73.7711530  68.2368510  35.1274550  73.2986380  68.2822510  36.5650040
  72.2007500  64.6373960  35.6796990  71.5716380  65.1059060  36.2282820
  72.3155330  63.7923180  36.1143180  71.8041090  60.7778450  24.5883220
  70.9725970  60.5227160  24.9879730  72.4122070  60.8489220  25.3241140
  71.7842350  64.8118540  24.7841240  72.0870390  63.9216280  24.6051460
  72.5285940  65.3688760  24.5563490  70.2133040  55.7380340  18.3725610
  69.3249740  56.0796310  18.2705490  70.4974230  55.5380660  17.4806440
  68.1766050  58.3385990  24.2565310  68.7482160  57.5708190  24.2568950
  68.1767590  58.6374750  23.3471920  69.4190920  53.7470350  26.0434240
  69.2393760  52.8496100  26.3237000  69.0171000  54.2942220  26.7181190
  72.3894430  54.3211840  19.4063990  72.4961180  55.2215570  19.7132750
  71.4786790  54.2729810  19.1158640  70.0377590  56.2430850  24.6516580
  70.7187700  56.5069220  25.2703980  69.7225640  55.4031720  24.9854590
  74.2302160  57.2898210  23.7389170  74.7380380  57.7879180  24.3794190
  74.7615400  56.5133410  23.5628530  72.5138260  51.9296770  28.0052590
  72.5156700  52.4469160  27.1998490  71.6842570  51.4526950  27.9822520
  73.7641110  61.5691950  26.1826090  73.4310490  62.1960870  26.8247160
  73.9407790  62.0953830  25.4027760  72.1953590  53.6406730  26.0123040
  72.5370400  54.4848780  25.7176910  71.2569400  53.7890470  26.1288380
  72.9760210  63.5372750  27.9975270  73.5934210  64.2123830  27.7159720
  72.1153330  63.9460730  27.9062770  68.2692550  62.7272610  16.8782120
  67.8920530  63.2159710  16.1467020  68.5265620  63.3997890  17.5088650
  75.8781480  51.1289000  22.3367630  76.1856460  50.5735890  21.6203130
  74.9482180  51.2633460  22.1540620  73.8718880  59.7202570  21.8547480
  73.4675880  59.0079820  21.3593380  73.9582000  59.3755810  22.7435520
  74.3400580  63.4070130  24.0186690  74.0428870  62.8015600  23.3394470
  75.2900400  63.4447440  23.9076050  72.5847500  56.4945780  25.6346520
  73.1362090  56.6041120  24.8599770  73.0991010  56.8683380  26.3501750
  73.4319010  63.1451820  30.6694490  72.5347540  63.3691790  30.9167890
  73.4571880  63.2686760  29.7205890  72.2590230  60.0165140  29.2451860
  72.1198000  60.8887940  29.6139260  71.3771590  59.6737950  29.0999800
  74.0570580  65.9586840  31.4537010  74.0286010  66.3629790  30.5865440
  73.8935550  65.0297200  31.2908610  70.5723510  58.6147550  19.3554130
  70.4521110  59.3409640  18.7435400  70.2624400  57.8450460  18.8782040
  68.2108880  61.7862690  25.1622770  68.2889300  61.9211460  24.2178490
  68.8250560  61.0778580  25.3550890  69.4556510  63.4862880  21.5728950
  69.0484590  63.6277470  20.7182550  70.3469520  63.2023040  21.3700160
  73.7278170  67.7008660  19.6851620  73.5520650  66.7844200  19.4719420
  72.8733910  68.0595950  19.9249420  68.2668400  62.8276860  27.7017230
  68.4299440  62.3582220  26.8836600  68.7320850  62.3200420  28.3666070
  73.0387170  51.9582620  22.7377800  72.5955320  52.7392160  22.4062320
  73.5972160  52.2812510  23.4448740  77.3256980  54.8251140  28.3413120
  76.8636350  55.0334160  29.1533060  76.9235090  54.0110490  28.0383790
  76.1545990  51.5793320  17.6183630  75.5300170  51.5753190  18.3436940
  76.0676110  50.7124280  17.2219600  75.0763070  52.5029950  24.5967400
  75.3735400  53.4092780  24.5159420  75.6248630  52.0148730  23.9826970
  72.8301390  57.0816190  20.4659050  72.6042310  56.8653360  21.3705670
  72.0493920  57.5144650  20.1205020  75.2700600  57.9801770  31.1319320
  75.1744200  57.0396500  30.9819720  76.1132580  58.2016840  30.7367390
  70.4011140  54.3915440  29.2853100  70.0074530  55.2390650  29.4925880
  69.7129540  53.7541810  29.4761740  67.7028190  52.3143900  23.3183180
  67.4141240  52.8846760  24.0308160  68.4473950  51.8348350  23.6814410
  67.8898420  56.2564020  14.5285900  67.8073090  57.1994780  14.6700890
  67.5381480  56.1138930  13.6498250  75.6896550  54.9903050  23.5956250
  75.6932610  54.5493000  22.7460790  76.5847670  55.3120380  23.7028070
  71.5398930  54.8729540  22.5550460  71.1998980  55.3504770  23.3117510
  70.7776250  54.4194660  22.1951560  75.7516700  55.9915130  16.5863010
  75.8729520  55.9501610  17.5348830  75.3665210  56.8539280  16.4309740
  74.7638200  58.3016270  15.9846310  74.1955100  57.8534520  15.3582220
  75.4727200  58.6609050  15.4511460  69.8407380  62.2028290  29.8613040
  69.4562170  61.5621960  30.4596000  70.1519570  62.9064410  30.4307770
  75.9904520  59.0504830  25.3421660  76.3574650  58.5763400  26.0883000
  75.8009580  59.9246400  25.6830000  68.8545010  53.7948520  21.4715130
  68.5691930  53.4304190  22.3093750  68.7923870  53.0628980  20.8578270
  73.7803890  58.0913470  27.6605870  73.4760960  58.9705450  27.8856230
  74.7350350  58.1513260  27.6963310  72.3085680  62.2974460  18.2572720
  71.5347940  61.7572080  18.0971440  73.0380310  61.7781070  17.9190480
  72.3523080  61.9654840  21.8951530  72.8701750  61.1623100  21.8408420
  71.9007100  61.9033980  22.7368360  77.2392580  63.2321120  17.1678830
  77.5808280  63.9763350  16.6722150  76.4105290  63.5452240  17.5303660
  69.8367620  58.9316210  28.8077230  69.4782560  59.5970060  29.3950570
  69.5422180  58.0999760  29.1789850  73.0380740  59.3900450  31.6916780
  72.7380880  59.5357630  30.7944600  73.8091980  58.8305740  31.5990170
  76.2083270  63.3134650  19.9394750  76.8954400  63.8603860  20.3202340
  75.4215690  63.8575380  19.9744360  68.3475670  58.9307470  15.4311830
  69.2170520  59.2132270  15.7147750  67.8565990  59.7443340  15.3160640
  75.5110480  60.3180680  19.5520110  75.9673260  61.1285930  19.7780300
  75.1598690  60.0003820  20.3838600  71.4122260  50.6618330  20.0242630
  71.2836890  50.6536230  20.9727550  70.5884280  51.0001420  19.6733640
  68.7146920  68.1434850  15.9973460  69.0744560  68.7424190  15.3430730
  68.5739260  68.6894740  16.7708490  68.4116190  52.4209450  29.4849330
  67.6974710  52.6206370  30.0901940  68.8311230  51.6449020  29.8564130
  68.6988780  66.4089710  30.4715860  68.8079900  65.4684450  30.3311250
  68.0469340  66.6744460  29.8229590  76.6901370  64.6805600  31.8713980
  76.3698240  63.9614840  32.4159670  76.0159730  65.3560670  31.9450040
  74.7315540  65.5266050  16.8147130  74.7225640  66.2595740  16.1991640
  73.8113900  65.2797630  16.9074090  70.3322180  60.7480940  17.5593890
  69.7250130  61.4879840  17.5689190  70.8071530  60.8380300  16.7332090
  75.2401030  56.1474650  19.4596220  74.5317180  56.6160990  19.9009830
  75.5245510  55.4896660  20.0941410  76.8656960  57.5671350  27.4588750
  77.3642210  58.0417170  28.1240600  77.0079910  56.6434870  27.6658780
  76.3593250  68.1080610  20.1719990  76.6134750  68.0702000  19.2499360
  75.4105730  67.9813940  20.1648240  73.4436050  54.4559730  16.8346930
  74.2926580  54.8929880  16.7687120  73.0767320  54.7679990  17.6618990
  72.3427470  60.7092090  15.3082460  73.1090740  60.5973450  15.8707890
  72.4202160  60.0130060  14.6559230  71.0374230  58.1417160  15.9915350
  71.1177820  57.1944670  16.1032750  71.9293980  58.4724040  16.0976010
  71.8388940  68.2912550  23.0949890  72.5751420  67.7428010  23.3658460
  72.2229860  69.1568560  22.9555880  68.7234420  64.3586120  18.9691400
  67.7974200  64.6007260  18.9596810  69.1890850  65.1860380  18.8476150
  70.8447220  67.4758620  32.2835470  71.6459950  67.7970670  32.6970870
  70.3299040  67.1154200  33.0055380  74.9491250  67.4642860  14.9175460
  75.7419860  67.7531690  14.4657250  74.4295600  67.0335030  14.2387940
  68.5645030  59.9632080  31.2271520  69.0684050  59.3839360  31.7987750
  67.8252450  60.2472310  31.7647890  75.4668650  62.6846270  14.7817810
  75.3619290  62.0698620  15.5079190  75.2992870  62.1612160  13.9980820
  75.6182970  61.3703070  30.7607040  74.8528640  61.9388070  30.6761710
  75.7998930  61.0779280  29.8675270  70.5968110  58.1061670  32.1221590
  70.6373450  57.8075540  33.0306820  71.4513610  58.5069280  31.9629110
  74.3746500  60.7057220  17.2825100  74.7962920  60.5397090  18.1256490
  74.4997340  59.8957450  16.7880240  72.5373920  56.6853770  30.0896080
  72.0070380  56.1944720  29.4619420  73.2061990  57.1137970  29.5554010
  76.8874140  59.7294830  14.5302200  77.4079800  59.0143850  14.1643350
  77.5342540  60.3680700  14.8302710  73.0246220  53.6516140  30.1693370
  72.9303090  53.0336890  29.4444240  72.4443610  54.3782430  29.9423280
  75.7907660  52.2089380  27.2020760  75.3424960  52.2313640  26.3566310
  75.1572860  51.8108400  27.7991060  76.1967210  61.1043710  27.8233200
  76.6155320  61.9476440  27.6509440  75.2775840  61.2415750  27.5939980
  73.2705400  56.7790450  14.2283260  73.0694460  55.9157810  14.5896600
  73.0997450  56.6923810  13.2904860  74.0474630  67.4096720  28.9390930
  73.5095720  68.1342780  28.6199630  74.3008590  66.9327060  28.1488270
  75.2999880  55.3781240  30.4646860  75.8899570  55.0697090  31.1524680
  74.4820120  54.9060990  30.6206760  72.0688200  53.8791070  14.2161140
  72.3714100  53.8858500  13.3080290  72.8082790  53.5288930  14.7128800
  76.9036840  68.6447930  29.1977580  76.8295540  69.5483070  29.5049950
  76.0015680  68.3259830  29.1699650  75.2873130  52.8225690  15.2017340
  74.9395130  52.1449680  14.6219790  75.4885900  52.3615200  16.0160730
  71.0918330  63.1833490  15.0490940  71.5293200  63.7263160  15.7048520
  71.5766060  62.3580440  15.0587280  68.3064130  65.9722520  22.5011200
  68.6367140  65.1043580  22.2689840  68.7355130  66.1781040  23.3316160
  72.9026050  64.3031530  20.1613170  72.6021590  64.1796500  21.0617080
  72.7963540  63.4440120  19.7528900  68.7954340  66.8393110  25.2392830
  68.3585330  67.0193910  26.0716980  69.3632020  67.5967730  25.0974550
  68.6278770  59.3513340  21.5981710  67.9727610  59.0824980  20.9541410
  69.4656720  59.2417820  21.1483690  69.6654700  59.7365910  26.1385050
  70.0327740  59.6493310  27.0181070  69.0965520  58.9732460  26.0391910
  69.2170700  56.6475000  30.0443470  68.3226750  56.6141760  30.3837180
  69.7568250  56.8461790  30.8094720  67.8416850  56.5612270  17.5407040
  66.9380930  56.8242470  17.3658700  68.3257470  56.8323440  16.7607000
  70.3844060  55.6177810  15.4501420  71.0935760  55.1961030  14.9648700
  69.6684000  55.6853040  14.8184770  70.0318220  51.6717140  14.4904070
  70.7546350  52.2126080  14.8085290  70.3042740  51.3980560  13.6145610
  69.7210410  50.9223330  24.3926690  70.3686600  50.3720710  23.9521850
  70.1412250  51.1766480  25.2142500  69.4742410  51.0779000  27.1352010
  69.1257230  51.5342820  27.9010190  69.1430110  50.1836130  27.2174440
  71.0806780  64.2498600  31.3005200  71.0376410  63.8791510  32.1819660
  71.2117790  65.1876170  31.4407020  74.7812810  65.8058190  26.9014920
  74.5404170  66.0732750  26.0145440  75.7215450  65.9763920  26.9565780
  70.1463050  50.6055200  30.4102780  70.6946040  50.4243250  29.6468890
  70.2118360  49.8149310  30.9459090  70.9194810  67.1960850  28.4202980
  70.3255130  67.0645550  29.1593020  70.9118650  66.3598990  27.9545080
  70.5507040  64.5619230  27.3711020  69.8241100  63.9424520  27.3036970
  70.6116190  64.9559840  26.5009100  74.1552140  66.7764230  24.1560430
  74.6717160  66.1651590  23.6308690  74.8049520  67.2793010  24.6471440
  76.8947640  67.6672720  24.9829410  77.1825450  67.4127020  24.1062420
  77.4070860  67.1150080  25.5734980  68.8337040  67.8793620  20.5807780
  68.6659080  67.2464300  21.2789670  67.9671550  68.0853020  20.2301970
  69.4565060  51.7110400  18.0839640  70.2144420  51.8239280  17.5103670
  68.9942230  52.5479600  18.0383070  75.9978870  53.8249670  21.0741950
  75.1853380  53.4506560  20.7337830  76.5020510  53.0694750  21.3763140
  70.4399740  66.5726850  18.0257920  69.9147360  66.9534880  17.3219880
  70.3644320  67.1977620  18.7467630  71.8290210  52.2374450  16.6241610
  72.3582970  51.4504250  16.4949560  72.4618530  52.9165640  16.8577140
  74.0228050  51.9749590  19.6787000  73.3930790  51.2736900  19.8457130
  73.4833190  52.7353720  19.4620160  74.1483610  51.2533570  32.1139490
  73.8667880  51.7567170  31.3500310  74.5303310  50.4555320  31.7481620
  73.0392710  68.5209230  16.9007170  73.7711530  68.2368510  16.3531060
  73.2986380  68.2822510  17.7906550  72.2007500  64.6373960  16.9053500
  71.5716380  65.1059060  17.4539330  72.3155330  63.7923180  17.3399690
  71.8041090  60.7778450   5.8139730  70.9725970  60.5227160   6.2136240
  72.4122070  60.8489220   6.5497650  71.7842350  64.8118540   6.0097750
  72.0870390  63.9216280   5.8307970  72.5285940  65.3688760   5.7820000
  68.1766050  58.3385990   5.4821820  68.7482160  57.5708190   5.4825460
  68.1767590  58.6374750   4.5728430  69.4190920  53.7470350   7.2690750
  69.2393760  52.8496100   7.5493510  69.0171000  54.2942220   7.9437700
  70.0377590  56.2430850   5.8773090  70.7187700  56.5069220   6.4960490
  69.7225640  55.4031720   6.2111100  74.2302160  57.2898210   4.9645680
  74.7380380  57.7879180   5.6050700  74.7615400  56.5133410   4.7885040
  72.5138260  51.9296770   9.2309100  72.5156700  52.4469160   8.4255000
  71.6842570  51.4526950   9.2079030  73.7641110  61.5691950   7.4082600
  73.4310490  62.1960870   8.0503670  73.9407790  62.0953830   6.6284270
  72.1953590  53.6406730   7.2379550  72.5370400  54.4848780   6.9433420
  71.2569400  53.7890470   7.3544890  72.9760210  63.5372750   9.2231780
  73.5934210  64.2123830   8.9416230  72.1153330  63.9460730   9.1319280
  75.8781480  51.1289000   3.5624140  76.1856460  50.5735890   2.8459640
  74.9482180  51.2633460   3.3797130  73.8718880  59.7202570   3.0803990
  73.4675880  59.0079820   2.5849890  73.9582000  59.3755810   3.9692030
  74.3400580  63.4070130   5.2443200  74.0428870  62.8015600   4.5650980
  75.2900400  63.4447440   5.1332560  72.5847500  56.4945780   6.8603030
  73.1362090  56.6041120   6.0856280  73.0991010  56.8683380   7.5758260
  73.4319010  63.1451820  11.8951000  72.5347540  63.3691790  12.1424400
  73.4571880  63.2686760  10.9462400  72.2590230  60.0165140  10.4708370
  72.1198000  60.8887940  10.8395770  71.3771590  59.6737950  10.3256310
  74.0570580  65.9586840  12.6793520  74.0286010  66.3629790  11.8121950
  73.8935550  65.0297200  12.5165120  68.2108880  61.7862690   6.3879280
  68.2889300  61.9211460   5.4435000  68.8250560  61.0778580   6.5807400
  69.4556510  63.4862880   2.7985460  69.0484590  63.6277470   1.9439060
  70.3469520  63.2023040   2.5956670  68.2668400  62.8276860   8.9273740
  68.4299440  62.3582220   8.1093110  68.7320850  62.3200420   9.5922580
  73.0387170  51.9582620   3.9634310  72.5955320  52.7392160   3.6318830
  73.5972160  52.2812510   4.6705250  77.3256980  54.8251140   9.5669630
  76.8636350  55.0334160  10.3789570  76.9235090  54.0110490   9.2640300
  75.0763070  52.5029950   5.8223910  75.3735400  53.4092780   5.7415930
  75.6248630  52.0148730   5.2083480  75.2700600  57.9801770  12.3575830
  75.1744200  57.0396500  12.2076230  76.1132580  58.2016840  11.9623900
  70.4011140  54.3915440  10.5109610  70.0074530  55.2390650  10.7182390
  69.7129540  53.7541810  10.7018250  67.7028190  52.3143900   4.5439690
  67.4141240  52.8846760   5.2564670  68.4473950  51.8348350   4.9070920
  75.6896550  54.9903050   4.8212760  75.6932610  54.5493000   3.9717300
  76.5847670  55.3120380   4.9284580  71.5398930  54.8729540   3.7806970
  71.1998980  55.3504770   4.5374020  70.7776250  54.4194660   3.4208070
  69.8407380  62.2028290  11.0869550  69.4562170  61.5621960  11.6852510
  70.1519570  62.9064410  11.6564280  75.9904520  59.0504830   6.5678170
  76.3574650  58.5763400   7.3139510  75.8009580  59.9246400   6.9086510
  68.8545010  53.7948520   2.6971640  68.5691930  53.4304190   3.5350260
  68.7923870  53.0628980   2.0834780  73.7803890  58.0913470   8.8862380
  73.4760960  58.9705450   9.1112740  74.7350350  58.1513260   8.9219820
  72.3523080  61.9654840   3.1208040  72.8701750  61.1623100   3.0664930
  71.9007100  61.9033980   3.9624870  69.8367620  58.9316210  10.0333740
  69.4782560  59.5970060  10.6207080  69.5422180  58.0999760  10.4046360
  73.0380740  59.3900450  12.9173290  72.7380880  59.5357630  12.0201110
  73.8091980  58.8305740  12.8246680  68.4116190  52.4209450  10.7105840
  67.6974710  52.6206370  11.3158450  68.8311230  51.6449020  11.0820640
  68.6988780  66.4089710  11.6972370  68.8079900  65.4684450  11.5567760
  68.0469340  66.6744460  11.0486100  76.6901370  64.6805600  13.0970490
  76.3698240  63.9614840  13.6416180  76.0159730  65.3560670  13.1706550
  76.8656960  57.5671350   8.6845260  77.3642210  58.0417170   9.3497110
  77.0079910  56.6434870   8.8915290  71.8388940  68.2912550   4.3206400
  72.5751420  67.7428010   4.5914970  72.2229860  69.1568560   4.1812390
  70.8447220  67.4758620  13.5091980  71.6459950  67.7970670  13.9227380
  70.3299040  67.1154200  14.2311890  68.5645030  59.9632080  12.4528030
  69.0684050  59.3839360  13.0244260  67.8252450  60.2472310  12.9904400
  75.6182970  61.3703070  11.9863550  74.8528640  61.9388070  11.9018220
  75.7998930  61.0779280  11.0931780  70.5968110  58.1061670  13.3478100
  70.6373450  57.8075540  14.2563330  71.4513610  58.5069280  13.1885620
  72.5373920  56.6853770  11.3152590  72.0070380  56.1944720  10.6875930
  73.2061990  57.1137970  10.7810520  73.0246220  53.6516140  11.3949880
  72.9303090  53.0336890  10.6700750  72.4443610  54.3782430  11.1679790
  75.7907660  52.2089380   8.4277270  75.3424960  52.2313640   7.5822820
  75.1572860  51.8108400   9.0247570  76.1967210  61.1043710   9.0489710
  76.6155320  61.9476440   8.8765950  75.2775840  61.2415750   8.8196490
  74.0474630  67.4096720  10.1647440  73.5095720  68.1342780   9.8456140
  74.3008590  66.9327060   9.3744780  75.2999880  55.3781240  11.6903370
  75.8899570  55.0697090  12.3781190  74.4820120  54.9060990  11.8463270
  76.9036840  68.6447930  10.4234090  76.8295540  69.5483070  10.7306460
  76.0015680  68.3259830  10.3956160  68.3064130  65.9722520   3.7267710
  68.6367140  65.1043580   3.4946350  68.7355130  66.1781040   4.5572670
  68.7954340  66.8393110   6.4649340  68.3585330  67.0193910   7.2973490
  69.3632020  67.5967730   6.3231060  68.6278770  59.3513340   2.8238220
  67.9727610  59.0824980   2.1797920  69.4656720  59.2417820   2.3740200
  69.6654700  59.7365910   7.3641560  70.0327740  59.6493310   8.2437580
  69.0965520  58.9732460   7.2648420  69.2170700  56.6475000  11.2699980
  68.3226750  56.6141760  11.6093690  69.7568250  56.8461790  12.0351230
  69.7210410  50.9223330   5.6183200  70.3686600  50.3720710   5.1778360
  70.1412250  51.1766480   6.4399010  69.4742410  51.0779000   8.3608520
  69.1257230  51.5342820   9.1266700  69.1430110  50.1836130   8.4430950
  71.0806780  64.2498600  12.5261710  71.0376410  63.8791510  13.4076170
  71.2117790  65.1876170  12.6663530  74.7812810  65.8058190   8.1271430
  74.5404170  66.0732750   7.2401950  75.7215450  65.9763920   8.1822290
  70.1463050  50.6055200  11.6359290  70.6946040  50.4243250  10.8725400
  70.2118360  49.8149310  12.1715600  70.9194810  67.1960850   9.6459490
  70.3255130  67.0645550  10.3849530  70.9118650  66.3598990   9.1801590
  70.5507040  64.5619230   8.5967530  69.8241100  63.9424520   8.5293480
  70.6116190  64.9559840   7.7265610  74.1552140  66.7764230   5.3816940
  74.6717160  66.1651590   4.8565200  74.8049520  67.2793010   5.8727950
  76.8947640  67.6672720   6.2085920  77.1825450  67.4127020   5.3318930
  77.4070860  67.1150080   6.7991490  75.9978870  53.8249670   2.2998460
  75.1853380  53.4506560   1.9594340  76.5020510  53.0694750   2.6019650
  74.1483610  51.2533570  13.3396000  73.8667880  51.7567170  12.5756820
  74.5303310  50.4555320  12.9738130  71.8041090  42.0034960  99.6857180
  70.9725970  41.7483670 100.0853690  72.4122070  42.0745730 100.4215100
  71.7842350  46.0375050  99.8815200  72.0870390  45.1472790  99.7025420
  72.5285940  46.5945270  99.6537450  70.2133040  36.9636850  93.4699570
  69.3249740  37.3052820  93.3679450  70.4974230  36.7637170  92.5780400
  68.1766050  39.5642500  99.3539270  68.7482160  38.7964700  99.3542910
  68.1767590  39.8631260  98.4445880  72.3894430  35.5468350  94.5037950
  72.4961180  36.4472080  94.8106710  71.4786790  35.4986320  94.2132600
  70.0377590  37.4687360  99.7490540  70.7187700  37.7325730 100.3677940
  69.7225640  36.6288230 100.0828550  74.2302160  38.5154720  98.8363130
  74.7380380  39.0135690  99.4768150  74.7615400  37.7389920  98.6602490
  72.1953590  34.8663240 101.1097000  72.5370400  35.7105290 100.8150870
  71.2569400  35.0146980 101.2262340  68.2692550  43.9529120  91.9756080
  67.8920530  44.4416220  91.2440980  68.5265620  44.6254400  92.6062610
  75.8781480  32.3545510  97.4341590  76.1856460  31.7992400  96.7177090
  74.9482180  32.4889970  97.2514580  73.8718880  40.9459080  96.9521440
  73.4675880  40.2336330  96.4567340  73.9582000  40.6012320  97.8409480
  74.3400580  44.6326640  99.1160650  74.0428870  44.0272110  98.4368430
  75.2900400  44.6703950  99.0050010  72.5847500  37.7202290 100.7320480
  73.1362090  37.8297630  99.9573730  73.0991010  38.0939890 101.4475710
  70.5723510  39.8404060  94.4528090  70.4521110  40.5666150  93.8409360
  70.2624400  39.0706970  93.9756000  68.2108880  43.0119200 100.2596730
  68.2889300  43.1467970  99.3152450  68.8250560  42.3035090 100.4524850
  69.4556510  44.7119390  96.6702910  69.0484590  44.8533980  95.8156510
  70.3469520  44.4279550  96.4674120  73.7278170  48.9265170  94.7825580
  73.5520650  48.0100710  94.5693380  72.8733910  49.2852460  95.0223380
  73.0387170  33.1839130  97.8351760  72.5955320  33.9648670  97.5036280
  73.5972160  33.5069020  98.5422700  76.1545990  32.8049830  92.7157590
  75.5300170  32.8009700  93.4410900  76.0676110  31.9380790  92.3193560
  75.0763070  33.7286460  99.6941360  75.3735400  34.6349290  99.6133380
  75.6248630  33.2405240  99.0800930  72.8301390  38.3072700  95.5633010
  72.6042310  38.0909870  96.4679630  72.0493920  38.7401160  95.2178980
  67.7028190  33.5400410  98.4157140  67.4141240  34.1103270  99.1282120
  68.4473950  33.0604860  98.7788370  67.8898420  37.4820530  89.6259860
  67.8073090  38.4251290  89.7674850  67.5381480  37.3395440  88.7472210
  75.6896550  36.2159560  98.6930210  75.6932610  35.7749510  97.8434750
  76.5847670  36.5376890  98.8002030  71.5398930  36.0986050  97.6524420
  71.1998980  36.5761280  98.4091470  70.7776250  35.6451170  97.2925520
  75.7516700  37.2171640  91.6836970  75.8729520  37.1758120  92.6322790
  75.3665210  38.0795790  91.5283700  74.7638200  39.5272780  91.0820270
  74.1955100  39.0791030  90.4556180  75.4727200  39.8865560  90.5485420
  75.9904520  40.2761340 100.4395620  76.3574650  39.8019910 101.1856960
  75.8009580  41.1502910 100.7803960  68.8545010  35.0205030  96.5689090
  68.5691930  34.6560700  97.4067710  68.7923870  34.2885490  95.9552230
  72.3085680  43.5230970  93.3546680  71.5347940  42.9828590  93.1945400
  73.0380310  43.0037580  93.0164440  72.3523080  43.1911350  96.9925490
  72.8701750  42.3879610  96.9382380  71.9007100  43.1290490  97.8342320
  77.2392580  44.4577630  92.2652790  77.5808280  45.2019860  91.7696110
  76.4105290  44.7708750  92.6277620  76.2083270  44.5391160  95.0368710
  76.8954400  45.0860370  95.4176300  75.4215690  45.0831890  95.0718320
  68.3475670  40.1563980  90.5285790  69.2170520  40.4388780  90.8121710
  67.8565990  40.9699850  90.4134600  75.5110480  41.5437190  94.6494070
  75.9673260  42.3542440  94.8754260  75.1598690  41.2260330  95.4812560
  71.4122260  31.8874840  95.1216590  71.2836890  31.8792740  96.0701510
  70.5884280  32.2257930  94.7707600  68.7146920  49.3691360  91.0947420
  69.0744560  49.9680700  90.4404690  68.5739260  49.9151250  91.8682450
  74.7315540  46.7522560  91.9121090  74.7225640  47.4852250  91.2965600
  73.8113900  46.5054140  92.0048050  70.3322180  41.9737450  92.6567850
  69.7250130  42.7136350  92.6663150  70.8071530  42.0636810  91.8306050
  75.2401030  37.3731160  94.5570180  74.5317180  37.8417500  94.9983790
  75.5245510  36.7153170  95.1915370  76.3593250  49.3337120  95.2693950
  76.6134750  49.2958510  94.3473320  75.4105730  49.2070450  95.2622200
  73.4436050  35.6816240  91.9320890  74.2926580  36.1186390  91.8661080
  73.0767320  35.9936500  92.7592950  72.3427470  41.9348600  90.4056420
  73.1090740  41.8229960  90.9681850  72.4202160  41.2386570  89.7533190
  71.0374230  39.3673670  91.0889310  71.1177820  38.4201180  91.2006710
  71.9293980  39.6980550  91.1949970  71.8388940  49.5169060  98.1923850
  72.5751420  48.9684520  98.4632420  72.2229860  50.3825070  98.0529840
  68.7234420  45.5842630  94.0665360  67.7974200  45.8263770  94.0570770
  69.1890850  46.4116890  93.9450110  74.9491250  48.6899370  90.0149420
  75.7419860  48.9788200  89.5631210  74.4295600  48.2591540  89.3361900
  75.4668650  43.9102780  89.8791770  75.3619290  43.2955130  90.6053150
  75.2992870  43.3868670  89.0954780  74.3746500  41.9313730  92.3799060
  74.7962920  41.7653600  93.2230450  74.4997340  41.1213960  91.8854200
  76.8874140  40.9551340  89.6276160  77.4079800  40.2400360  89.2617310
  77.5342540  41.5937210  89.9276670  73.2705400  38.0046960  89.3257220
  73.0694460  37.1414320  89.6870560  73.0997450  37.9180320  88.3878820
  72.0688200  35.1047580  89.3135100  72.3714100  35.1115010  88.4054250
  72.8082790  34.7545440  89.8102760  75.2873130  34.0482200  90.2991300
  74.9395130  33.3706190  89.7193750  75.4885900  33.5871710  91.1134690
  71.0918330  44.4090000  90.1464900  71.5293200  44.9519670  90.8022480
  71.5766060  43.5836950  90.1561240  68.3064130  47.1979030  97.5985160
  68.6367140  46.3300090  97.3663800  68.7355130  47.4037550  98.4290120
  72.9026050  45.5288040  95.2587130  72.6021590  45.4053010  96.1591040
  72.7963540  44.6696630  94.8502860  68.7954340  48.0649620 100.3366790
  68.3585330  48.2450420 101.1690940  69.3632020  48.8224240 100.1948510
  68.6278770  40.5769850  96.6955670  67.9727610  40.3081490  96.0515370
  69.4656720  40.4674330  96.2457650  67.8416850  37.7868780  92.6381000
  66.9380930  38.0498980  92.4632660  68.3257470  38.0579950  91.8580960
  70.3844060  36.8434320  90.5475380  71.0935760  36.4217540  90.0622660
  69.6684000  36.9109550  89.9158730  70.0318220  32.8973650  89.5878030
  70.7546350  33.4382590  89.9059250  70.3042740  32.6237070  88.7119570
  69.7210410  32.1479840  99.4900650  70.3686600  31.5977220  99.0495810
  70.1412250  32.4022990 100.3116460  74.1552140  48.0020740  99.2534390
  74.6717160  47.3908100  98.7282650  74.8049520  48.5049520  99.7445400
  76.8947640  48.8929230 100.0803370  77.1825450  48.6383530  99.2036380
  77.4070860  48.3406590 100.6708940  68.8337040  49.1050130  95.6781740
  68.6659080  48.4720810  96.3763630  67.9671550  49.3109530  95.3275930
  69.4565060  32.9366910  93.1813600  70.2144420  33.0495790  92.6077630
  68.9942230  33.7736110  93.1357030  75.9978870  35.0506180  96.1715910
  75.1853380  34.6763070  95.8311790  76.5020510  34.2951260  96.4737100
  70.4399740  47.7983360  93.1231880  69.9147360  48.1791390  92.4193840
  70.3644320  48.4234130  93.8441590  71.8290210  33.4630960  91.7215570
  72.3582970  32.6760760  91.5923520  72.4618530  34.1422150  91.9551100
  74.0228050  33.2006100  94.7760960  73.3930790  32.4993410  94.9431090
  73.4833190  33.9610230  94.5594120  73.0392710  49.7465740  91.9981130
  73.7711530  49.4625020  91.4505020  73.2986380  49.5079020  92.8880510
  72.2007500  45.8630470  92.0027460  71.5716380  46.3315570  92.5513290
  72.3155330  45.0179690  92.4373650  71.8041090  42.0034960  80.9113690
  70.9725970  41.7483670  81.3110200  72.4122070  42.0745730  81.6471610
  71.7842350  46.0375050  81.1071710  72.0870390  45.1472790  80.9281930
  72.5285940  46.5945270  80.8793960  70.2133040  36.9636850  74.6956080
  69.3249740  37.3052820  74.5935960  70.4974230  36.7637170  73.8036910
  68.1766050  39.5642500  80.5795780  68.7482160  38.7964700  80.5799420
  68.1767590  39.8631260  79.6702390  69.4190920  34.9726860  82.3664710
  69.2393760  34.0752610  82.6467470  69.0171000  35.5198730  83.0411660
  72.3894430  35.5468350  75.7294460  72.4961180  36.4472080  76.0363220
  71.4786790  35.4986320  75.4389110  70.0377590  37.4687360  80.9747050
  70.7187700  37.7325730  81.5934450  69.7225640  36.6288230  81.3085060
  74.2302160  38.5154720  80.0619640  74.7380380  39.0135690  80.7024660
  74.7615400  37.7389920  79.8859000  72.5138260  33.1553280  84.3283060
  72.5156700  33.6725670  83.5228960  71.6842570  32.6783460  84.3052990
  73.7641110  42.7948460  82.5056560  73.4310490  43.4217380  83.1477630
  73.9407790  43.3210340  81.7258230  72.1953590  34.8663240  82.3353510
  72.5370400  35.7105290  82.0407380  71.2569400  35.0146980  82.4518850
  72.9760210  44.7629260  84.3205740  73.5934210  45.4380340  84.0390190
  72.1153330  45.1717240  84.2293240  68.2692550  43.9529120  73.2012590
  67.8920530  44.4416220  72.4697490  68.5265620  44.6254400  73.8319120
  75.8781480  32.3545510  78.6598100  76.1856460  31.7992400  77.9433600
  74.9482180  32.4889970  78.4771090  73.8718880  40.9459080  78.1777950
  73.4675880  40.2336330  77.6823850  73.9582000  40.6012320  79.0665990
  74.3400580  44.6326640  80.3417160  74.0428870  44.0272110  79.6624940
  75.2900400  44.6703950  80.2306520  72.5847500  37.7202290  81.9576990
  73.1362090  37.8297630  81.1830240  73.0991010  38.0939890  82.6732220
  73.4319010  44.3708330  86.9924960  72.5347540  44.5948300  87.2398360
  73.4571880  44.4943270  86.0436360  72.2590230  41.2421650  85.5682330
  72.1198000  42.1144450  85.9369730  71.3771590  40.8994460  85.4230270
  74.0570580  47.1843350  87.7767480  74.0286010  47.5886300  86.9095910
  73.8935550  46.2553710  87.6139080  70.5723510  39.8404060  75.6784600
  70.4521110  40.5666150  75.0665870  70.2624400  39.0706970  75.2012510
  68.2108880  43.0119200  81.4853240  68.2889300  43.1467970  80.5408960
  68.8250560  42.3035090  81.6781360  69.4556510  44.7119390  77.8959420
  69.0484590  44.8533980  77.0413020  70.3469520  44.4279550  77.6930630
  73.7278170  48.9265170  76.0082090  73.5520650  48.0100710  75.7949890
  72.8733910  49.2852460  76.2479890  68.2668400  44.0533370  84.0247700
  68.4299440  43.5838730  83.2067070  68.7320850  43.5456930  84.6896540
  73.0387170  33.1839130  79.0608270  72.5955320  33.9648670  78.7292790
  73.5972160  33.5069020  79.7679210  77.3256980  36.0507650  84.6643590
  76.8636350  36.2590670  85.4763530  76.9235090  35.2367000  84.3614260
  76.1545990  32.8049830  73.9414100  75.5300170  32.8009700  74.6667410
  76.0676110  31.9380790  73.5450070  75.0763070  33.7286460  80.9197870
  75.3735400  34.6349290  80.8389890  75.6248630  33.2405240  80.3057440
  72.8301390  38.3072700  76.7889520  72.6042310  38.0909870  77.6936140
  72.0493920  38.7401160  76.4435490  75.2700600  39.2058280  87.4549790
  75.1744200  38.2653010  87.3050190  76.1132580  39.4273350  87.0597860
  70.4011140  35.6171950  85.6083570  70.0074530  36.4647160  85.8156350
  69.7129540  34.9798320  85.7992210  67.7028190  33.5400410  79.6413650
  67.4141240  34.1103270  80.3538630  68.4473950  33.0604860  80.0044880
  67.8898420  37.4820530  70.8516370  67.8073090  38.4251290  70.9931360
  67.5381480  37.3395440  69.9728720  75.6896550  36.2159560  79.9186720
  75.6932610  35.7749510  79.0691260  76.5847670  36.5376890  80.0258540
  71.5398930  36.0986050  78.8780930  71.1998980  36.5761280  79.6347980
  70.7776250  35.6451170  78.5182030  75.7516700  37.2171640  72.9093480
  75.8729520  37.1758120  73.8579300  75.3665210  38.0795790  72.7540210
  74.7638200  39.5272780  72.3076780  74.1955100  39.0791030  71.6812690
  75.4727200  39.8865560  71.7741930  69.8407380  43.4284800  86.1843510
  69.4562170  42.7878470  86.7826470  70.1519570  44.1320920  86.7538240
  75.9904520  40.2761340  81.6652130  76.3574650  39.8019910  82.4113470
  75.8009580  41.1502910  82.0060470  68.8545010  35.0205030  77.7945600
  68.5691930  34.6560700  78.6324220  68.7923870  34.2885490  77.1808740
  73.7803890  39.3169980  83.9836340  73.4760960  40.1961960  84.2086700
  74.7350350  39.3769770  84.0193780  72.3085680  43.5230970  74.5803190
  71.5347940  42.9828590  74.4201910  73.0380310  43.0037580  74.2420950
  72.3523080  43.1911350  78.2182000  72.8701750  42.3879610  78.1638890
  71.9007100  43.1290490  79.0598830  77.2392580  44.4577630  73.4909300
  77.5808280  45.2019860  72.9952620  76.4105290  44.7708750  73.8534130
  69.8367620  40.1572720  85.1307700  69.4782560  40.8226570  85.7181040
  69.5422180  39.3256270  85.5020320  73.0380740  40.6156960  88.0147250
  72.7380880  40.7614140  87.1175070  73.8091980  40.0562250  87.9220640
  76.2083270  44.5391160  76.2625220  76.8954400  45.0860370  76.6432810
  75.4215690  45.0831890  76.2974830  68.3475670  40.1563980  71.7542300
  69.2170520  40.4388780  72.0378220  67.8565990  40.9699850  71.6391110
  75.5110480  41.5437190  75.8750580  75.9673260  42.3542440  76.1010770
  75.1598690  41.2260330  76.7069070  71.4122260  31.8874840  76.3473100
  71.2836890  31.8792740  77.2958020  70.5884280  32.2257930  75.9964110
  68.7146920  49.3691360  72.3203930  69.0744560  49.9680700  71.6661200
  68.5739260  49.9151250  73.0938960  68.4116190  33.6465960  85.8079800
  67.6974710  33.8462880  86.4132410  68.8311230  32.8705530  86.1794600
  68.6988780  47.6346220  86.7946330  68.8079900  46.6940960  86.6541720
  68.0469340  47.9000970  86.1460060  76.6901370  45.9062110  88.1944450
  76.3698240  45.1871350  88.7390140  76.0159730  46.5817180  88.2680510
  74.7315540  46.7522560  73.1377600  74.7225640  47.4852250  72.5222110
  73.8113900  46.5054140  73.2304560  70.3322180  41.9737450  73.8824360
  69.7250130  42.7136350  73.8919660  70.8071530  42.0636810  73.0562560
  75.2401030  37.3731160  75.7826690  74.5317180  37.8417500  76.2240300
  75.5245510  36.7153170  76.4171880  76.8656960  38.7927860  83.7819220
  77.3642210  39.2673680  84.4471070  77.0079910  37.8691380  83.9889250
  76.3593250  49.3337120  76.4950460  76.6134750  49.2958510  75.5729830
  75.4105730  49.2070450  76.4878710  73.4436050  35.6816240  73.1577400
  74.2926580  36.1186390  73.0917590  73.0767320  35.9936500  73.9849460
  72.3427470  41.9348600  71.6312930  73.1090740  41.8229960  72.1938360
  72.4202160  41.2386570  70.9789700  71.0374230  39.3673670  72.3145820
  71.1177820  38.4201180  72.4263220  71.9293980  39.6980550  72.4206480
  71.8388940  49.5169060  79.4180360  72.5751420  48.9684520  79.6888930
  72.2229860  50.3825070  79.2786350  68.7234420  45.5842630  75.2921870
  67.7974200  45.8263770  75.2827280  69.1890850  46.4116890  75.1706620
  70.8447220  48.7015130  88.6065940  71.6459950  49.0227180  89.0201340
  70.3299040  48.3410710  89.3285850  74.9491250  48.6899370  71.2405930
  75.7419860  48.9788200  70.7887720  74.4295600  48.2591540  70.5618410
  68.5645030  41.1888590  87.5501990  69.0684050  40.6095870  88.1218220
  67.8252450  41.4728820  88.0878360  75.4668650  43.9102780  71.1048280
  75.3619290  43.2955130  71.8309660  75.2992870  43.3868670  70.3211290
  75.6182970  42.5959580  87.0837510  74.8528640  43.1644580  86.9992180
  75.7998930  42.3035790  86.1905740  70.5968110  39.3318180  88.4452060
  70.6373450  39.0332050  89.3537290  71.4513610  39.7325790  88.2859580
  74.3746500  41.9313730  73.6055570  74.7962920  41.7653600  74.4486960
  74.4997340  41.1213960  73.1110710  72.5373920  37.9110280  86.4126550
  72.0070380  37.4201230  85.7849890  73.2061990  38.3394480  85.8784480
  76.8874140  40.9551340  70.8532670  77.4079800  40.2400360  70.4873820
  77.5342540  41.5937210  71.1533180  73.0246220  34.8772650  86.4923840
  72.9303090  34.2593400  85.7674710  72.4443610  35.6038940  86.2653750
  75.7907660  33.4345890  83.5251230  75.3424960  33.4570150  82.6796780
  75.1572860  33.0364910  84.1221530  76.1967210  42.3300220  84.1463670
  76.6155320  43.1732950  83.9739910  75.2775840  42.4672260  83.9170450
  73.2705400  38.0046960  70.5513730  73.0694460  37.1414320  70.9127070
  73.0997450  37.9180320  69.6135330  74.0474630  48.6353230  85.2621400
  73.5095720  49.3599290  84.9430100  74.3008590  48.1583570  84.4718740
  75.2999880  36.6037750  86.7877330  75.8899570  36.2953600  87.4755150
  74.4820120  36.1317500  86.9437230  72.0688200  35.1047580  70.5391610
  72.3714100  35.1115010  69.6310760  72.8082790  34.7545440  71.0359270
  76.9036840  49.8704440  85.5208050  76.8295540  50.7739580  85.8280420
  76.0015680  49.5516340  85.4930120  75.2873130  34.0482200  71.5247810
  74.9395130  33.3706190  70.9450260  75.4885900  33.5871710  72.3391200
  71.0918330  44.4090000  71.3721410  71.5293200  44.9519670  72.0278990
  71.5766060  43.5836950  71.3817750  68.3064130  47.1979030  78.8241670
  68.6367140  46.3300090  78.5920310  68.7355130  47.4037550  79.6546630
  72.9026050  45.5288040  76.4843640  72.6021590  45.4053010  77.3847550
  72.7963540  44.6696630  76.0759370  68.7954340  48.0649620  81.5623300
  68.3585330  48.2450420  82.3947450  69.3632020  48.8224240  81.4205020
  68.6278770  40.5769850  77.9212180  67.9727610  40.3081490  77.2771880
  69.4656720  40.4674330  77.4714160  69.6654700  40.9622420  82.4615520
  70.0327740  40.8749820  83.3411540  69.0965520  40.1988970  82.3622380
  69.2170700  37.8731510  86.3673940  68.3226750  37.8398270  86.7067650
  69.7568250  38.0718300  87.1325190  67.8416850  37.7868780  73.8637510
  66.9380930  38.0498980  73.6889170  68.3257470  38.0579950  73.0837470
  70.3844060  36.8434320  71.7731890  71.0935760  36.4217540  71.2879170
  69.6684000  36.9109550  71.1415240  70.0318220  32.8973650  70.8134540
  70.7546350  33.4382590  71.1315760  70.3042740  32.6237070  69.9376080
  69.7210410  32.1479840  80.7157160  70.3686600  31.5977220  80.2752320
  70.1412250  32.4022990  81.5372970  69.4742410  32.3035510  83.4582480
  69.1257230  32.7599330  84.2240660  69.1430110  31.4092640  83.5404910
  71.0806780  45.4755110  87.6235670  71.0376410  45.1048020  88.5050130
  71.2117790  46.4132680  87.7637490  74.7812810  47.0314700  83.2245390
  74.5404170  47.2989260  82.3375910  75.7215450  47.2020430  83.2796250
  70.1463050  31.8311710  86.7333250  70.6946040  31.6499760  85.9699360
  70.2118360  31.0405820  87.2689560  70.9194810  48.4217360  84.7433450
  70.3255130  48.2902060  85.4823490  70.9118650  47.5855500  84.2775550
  70.5507040  45.7875740  83.6941490  69.8241100  45.1681030  83.6267440
  70.6116190  46.1816350  82.8239570  74.1552140  48.0020740  80.4790900
  74.6717160  47.3908100  79.9539160  74.8049520  48.5049520  80.9701910
  76.8947640  48.8929230  81.3059880  77.1825450  48.6383530  80.4292890
  77.4070860  48.3406590  81.8965450  68.8337040  49.1050130  76.9038250
  68.6659080  48.4720810  77.6020140  67.9671550  49.3109530  76.5532440
  69.4565060  32.9366910  74.4070110  70.2144420  33.0495790  73.8334140
  68.9942230  33.7736110  74.3613540  75.9978870  35.0506180  77.3972420
  75.1853380  34.6763070  77.0568300  76.5020510  34.2951260  77.6993610
  70.4399740  47.7983360  74.3488390  69.9147360  48.1791390  73.6450350
  70.3644320  48.4234130  75.0698100  71.8290210  33.4630960  72.9472080
  72.3582970  32.6760760  72.8180030  72.4618530  34.1422150  73.1807610
  74.0228050  33.2006100  76.0017470  73.3930790  32.4993410  76.1687600
  73.4833190  33.9610230  75.7850630  74.1483610  32.4790080  88.4369960
  73.8667880  32.9823680  87.6730780  74.5303310  31.6811830  88.0712090
  73.0392710  49.7465740  73.2237640  73.7711530  49.4625020  72.6761530
  73.2986380  49.5079020  74.1137020  72.2007500  45.8630470  73.2283970
  71.5716380  46.3315570  73.7769800  72.3155330  45.0179690  73.6630160
  71.8041090  42.0034960  62.1370200  70.9725970  41.7483670  62.5366710
  72.4122070  42.0745730  62.8728120  71.7842350  46.0375050  62.3328220
  72.0870390  45.1472790  62.1538440  72.5285940  46.5945270  62.1050470
  70.2133040  36.9636850  55.9212590  69.3249740  37.3052820  55.8192470
  70.4974230  36.7637170  55.0293420  68.1766050  39.5642500  61.8052290
  68.7482160  38.7964700  61.8055930  68.1767590  39.8631260  60.8958900
  69.4190920  34.9726860  63.5921220  69.2393760  34.0752610  63.8723980
  69.0171000  35.5198730  64.2668170  72.3894430  35.5468350  56.9550970
  72.4961180  36.4472080  57.2619730  71.4786790  35.4986320  56.6645620
  70.0377590  37.4687360  62.2003560  70.7187700  37.7325730  62.8190960
  69.7225640  36.6288230  62.5341570  74.2302160  38.5154720  61.2876150
  74.7380380  39.0135690  61.9281170  74.7615400  37.7389920  61.1115510
  72.5138260  33.1553280  65.5539570  72.5156700  33.6725670  64.7485470
  71.6842570  32.6783460  65.5309500  73.7641110  42.7948460  63.7313070
  73.4310490  43.4217380  64.3734140  73.9407790  43.3210340  62.9514740
  72.1953590  34.8663240  63.5610020  72.5370400  35.7105290  63.2663890
  71.2569400  35.0146980  63.6775360  72.9760210  44.7629260  65.5462250
  73.5934210  45.4380340  65.2646700  72.1153330  45.1717240  65.4549750
  68.2692550  43.9529120  54.4269100  67.8920530  44.4416220  53.6954000
  68.5265620  44.6254400  55.0575630  75.8781480  32.3545510  59.8854610
  76.1856460  31.7992400  59.1690110  74.9482180  32.4889970  59.7027600
  73.8718880  40.9459080  59.4034460  73.4675880  40.2336330  58.9080360
  73.9582000  40.6012320  60.2922500  74.3400580  44.6326640  61.5673670
  74.0428870  44.0272110  60.8881450  75.2900400  44.6703950  61.4563030
  72.5847500  37.7202290  63.1833500  73.1362090  37.8297630  62.4086750
  73.0991010  38.0939890  63.8988730  73.4319010  44.3708330  68.2181470
  72.5347540  44.5948300  68.4654870  73.4571880  44.4943270  67.2692870
  72.2590230  41.2421650  66.7938840  72.1198000  42.1144450  67.1626240
  71.3771590  40.8994460  66.6486780  74.0570580  47.1843350  69.0023990
  74.0286010  47.5886300  68.1352420  73.8935550  46.2553710  68.8395590
  70.5723510  39.8404060  56.9041110  70.4521110  40.5666150  56.2922380
  70.2624400  39.0706970  56.4269020  68.2108880  43.0119200  62.7109750
  68.2889300  43.1467970  61.7665470  68.8250560  42.3035090  62.9037870
  69.4556510  44.7119390  59.1215930  69.0484590  44.8533980  58.2669530
  70.3469520  44.4279550  58.9187140  73.7278170  48.9265170  57.2338600
  73.5520650  48.0100710  57.0206400  72.8733910  49.2852460  57.4736400
  68.2668400  44.0533370  65.2504210  68.4299440  43.5838730  64.4323580
  68.7320850  43.5456930  65.9153050  73.0387170  33.1839130  60.2864780
  72.5955320  33.9648670  59.9549300  73.5972160  33.5069020  60.9935720
  77.3256980  36.0507650  65.8900100  76.8636350  36.2590670  66.7020040
  76.9235090  35.2367000  65.5870770  76.1545990  32.8049830  55.1670610
  75.5300170  32.8009700  55.8923920  76.0676110  31.9380790  54.7706580
  75.0763070  33.7286460  62.1454380  75.3735400  34.6349290  62.0646400
  75.6248630  33.2405240  61.5313950  72.8301390  38.3072700  58.0146030
  72.6042310  38.0909870  58.9192650  72.0493920  38.7401160  57.6692000
  75.2700600  39.2058280  68.6806300  75.1744200  38.2653010  68.5306700
  76.1132580  39.4273350  68.2854370  70.4011140  35.6171950  66.8340080
  70.0074530  36.4647160  67.0412860  69.7129540  34.9798320  67.0248720
  67.7028190  33.5400410  60.8670160  67.4141240  34.1103270  61.5795140
  68.4473950  33.0604860  61.2301390  67.8898420  37.4820530  52.0772880
  67.8073090  38.4251290  52.2187870  67.5381480  37.3395440  51.1985230
  75.6896550  36.2159560  61.1443230  75.6932610  35.7749510  60.2947770
  76.5847670  36.5376890  61.2515050  71.5398930  36.0986050  60.1037440
  71.1998980  36.5761280  60.8604490  70.7776250  35.6451170  59.7438540
  75.7516700  37.2171640  54.1349990  75.8729520  37.1758120  55.0835810
  75.3665210  38.0795790  53.9796720  74.7638200  39.5272780  53.5333290
  74.1955100  39.0791030  52.9069200  75.4727200  39.8865560  52.9998440
  69.8407380  43.4284800  67.4100020  69.4562170  42.7878470  68.0082980
  70.1519570  44.1320920  67.9794750  75.9904520  40.2761340  62.8908640
  76.3574650  39.8019910  63.6369980  75.8009580  41.1502910  63.2316980
  68.8545010  35.0205030  59.0202110  68.5691930  34.6560700  59.8580730
  68.7923870  34.2885490  58.4065250  73.7803890  39.3169980  65.2092850
  73.4760960  40.1961960  65.4343210  74.7350350  39.3769770  65.2450290
  72.3085680  43.5230970  55.8059700  71.5347940  42.9828590  55.6458420
  73.0380310  43.0037580  55.4677460  72.3523080  43.1911350  59.4438510
  72.8701750  42.3879610  59.3895400  71.9007100  43.1290490  60.2855340
  77.2392580  44.4577630  54.7165810  77.5808280  45.2019860  54.2209130
  76.4105290  44.7708750  55.0790640  69.8367620  40.1572720  66.3564210
  69.4782560  40.8226570  66.9437550  69.5422180  39.3256270  66.7276830
  73.0380740  40.6156960  69.2403760  72.7380880  40.7614140  68.3431580
  73.8091980  40.0562250  69.1477150  76.2083270  44.5391160  57.4881730
  76.8954400  45.0860370  57.8689320  75.4215690  45.0831890  57.5231340
  68.3475670  40.1563980  52.9798810  69.2170520  40.4388780  53.2634730
  67.8565990  40.9699850  52.8647620  75.5110480  41.5437190  57.1007090
  75.9673260  42.3542440  57.3267280  75.1598690  41.2260330  57.9325580
  71.4122260  31.8874840  57.5729610  71.2836890  31.8792740  58.5214530
  70.5884280  32.2257930  57.2220620  68.7146920  49.3691360  53.5460440
  69.0744560  49.9680700  52.8917710  68.5739260  49.9151250  54.3195470
  68.4116190  33.6465960  67.0336310  67.6974710  33.8462880  67.6388920
  68.8311230  32.8705530  67.4051110  68.6988780  47.6346220  68.0202840
  68.8079900  46.6940960  67.8798230  68.0469340  47.9000970  67.3716570
  76.6901370  45.9062110  69.4200960  76.3698240  45.1871350  69.9646650
  76.0159730  46.5817180  69.4937020  74.7315540  46.7522560  54.3634110
  74.7225640  47.4852250  53.7478620  73.8113900  46.5054140  54.4561070
  70.3322180  41.9737450  55.1080870  69.7250130  42.7136350  55.1176170
  70.8071530  42.0636810  54.2819070  75.2401030  37.3731160  57.0083200
  74.5317180  37.8417500  57.4496810  75.5245510  36.7153170  57.6428390
  76.8656960  38.7927860  65.0075730  77.3642210  39.2673680  65.6727580
  77.0079910  37.8691380  65.2145760  76.3593250  49.3337120  57.7206970
  76.6134750  49.2958510  56.7986340  75.4105730  49.2070450  57.7135220
  73.4436050  35.6816240  54.3833910  74.2926580  36.1186390  54.3174100
  73.0767320  35.9936500  55.2105970  72.3427470  41.9348600  52.8569440
  73.1090740  41.8229960  53.4194870  72.4202160  41.2386570  52.2046210
  71.0374230  39.3673670  53.5402330  71.1177820  38.4201180  53.6519730
  71.9293980  39.6980550  53.6462990  71.8388940  49.5169060  60.6436870
  72.5751420  48.9684520  60.9145440  72.2229860  50.3825070  60.5042860
  68.7234420  45.5842630  56.5178380  67.7974200  45.8263770  56.5083790
  69.1890850  46.4116890  56.3963130  70.8447220  48.7015130  69.8322450
  71.6459950  49.0227180  70.2457850  70.3299040  48.3410710  70.5542360
  74.9491250  48.6899370  52.4662440  75.7419860  48.9788200  52.0144230
  74.4295600  48.2591540  51.7874920  68.5645030  41.1888590  68.7758500
  69.0684050  40.6095870  69.3474730  67.8252450  41.4728820  69.3134870
  75.4668650  43.9102780  52.3304790  75.3619290  43.2955130  53.0566170
  75.2992870  43.3868670  51.5467800  75.6182970  42.5959580  68.3094020
  74.8528640  43.1644580  68.2248690  75.7998930  42.3035790  67.4162250
  70.5968110  39.3318180  69.6708570  70.6373450  39.0332050  70.5793800
  71.4513610  39.7325790  69.5116090  74.3746500  41.9313730  54.8312080
  74.7962920  41.7653600  55.6743470  74.4997340  41.1213960  54.3367220
  72.5373920  37.9110280  67.6383060  72.0070380  37.4201230  67.0106400
  73.2061990  38.3394480  67.1040990  76.8874140  40.9551340  52.0789180
  77.4079800  40.2400360  51.7130330  77.5342540  41.5937210  52.3789690
  73.0246220  34.8772650  67.7180350  72.9303090  34.2593400  66.9931220
  72.4443610  35.6038940  67.4910260  75.7907660  33.4345890  64.7507740
  75.3424960  33.4570150  63.9053290  75.1572860  33.0364910  65.3478040
  76.1967210  42.3300220  65.3720180  76.6155320  43.1732950  65.1996420
  75.2775840  42.4672260  65.1426960  73.2705400  38.0046960  51.7770240
  73.0694460  37.1414320  52.1383580  73.0997450  37.9180320  50.8391840
  74.0474630  48.6353230  66.4877910  73.5095720  49.3599290  66.1686610
  74.3008590  48.1583570  65.6975250  75.2999880  36.6037750  68.0133840
  75.8899570  36.2953600  68.7011660  74.4820120  36.1317500  68.1693740
  72.0688200  35.1047580  51.7648120  72.3714100  35.1115010  50.8567270
  72.8082790  34.7545440  52.2615780  76.9036840  49.8704440  66.7464560
  76.8295540  50.7739580  67.0536930  76.0015680  49.5516340  66.7186630
  75.2873130  34.0482200  52.7504320  74.9395130  33.3706190  52.1706770
  75.4885900  33.5871710  53.5647710  71.0918330  44.4090000  52.5977920
  71.5293200  44.9519670  53.2535500  71.5766060  43.5836950  52.6074260
  68.3064130  47.1979030  60.0498180  68.6367140  46.3300090  59.8176820
  68.7355130  47.4037550  60.8803140  72.9026050  45.5288040  57.7100150
  72.6021590  45.4053010  58.6104060  72.7963540  44.6696630  57.3015880
  68.7954340  48.0649620  62.7879810  68.3585330  48.2450420  63.6203960
  69.3632020  48.8224240  62.6461530  68.6278770  40.5769850  59.1468690
  67.9727610  40.3081490  58.5028390  69.4656720  40.4674330  58.6970670
  69.6654700  40.9622420  63.6872030  70.0327740  40.8749820  64.5668050
  69.0965520  40.1988970  63.5878890  69.2170700  37.8731510  67.5930450
  68.3226750  37.8398270  67.9324160  69.7568250  38.0718300  68.3581700
  67.8416850  37.7868780  55.0894020  66.9380930  38.0498980  54.9145680
  68.3257470  38.0579950  54.3093980  70.3844060  36.8434320  52.9988400
  71.0935760  36.4217540  52.5135680  69.6684000  36.9109550  52.3671750
  70.0318220  32.8973650  52.0391050  70.7546350  33.4382590  52.3572270
  70.3042740  32.6237070  51.1632590  69.7210410  32.1479840  61.9413670
  70.3686600  31.5977220  61.5008830  70.1412250  32.4022990  62.7629480
  69.4742410  32.3035510  64.6838990  69.1257230  32.7599330  65.4497170
  69.1430110  31.4092640  64.7661420  71.0806780  45.4755110  68.8492180
  71.0376410  45.1048020  69.7306640  71.2117790  46.4132680  68.9894000
  74.7812810  47.0314700  64.4501900  74.5404170  47.2989260  63.5632420
  75.7215450  47.2020430  64.5052760  70.1463050  31.8311710  67.9589760
  70.6946040  31.6499760  67.1955870  70.2118360  31.0405820  68.4946070
  70.9194810  48.4217360  65.9689960  70.3255130  48.2902060  66.7080000
  70.9118650  47.5855500  65.5032060  70.5507040  45.7875740  64.9198000
  69.8241100  45.1681030  64.8523950  70.6116190  46.1816350  64.0496080
  74.1552140  48.0020740  61.7047410  74.6717160  47.3908100  61.1795670
  74.8049520  48.5049520  62.1958420  76.8947640  48.8929230  62.5316390
  77.1825450  48.6383530  61.6549400  77.4070860  48.3406590  63.1221960
  68.8337040  49.1050130  58.1294760  68.6659080  48.4720810  58.8276650
  67.9671550  49.3109530  57.7788950  69.4565060  32.9366910  55.6326620
  70.2144420  33.0495790  55.0590650  68.9942230  33.7736110  55.5870050
  75.9978870  35.0506180  58.6228930  75.1853380  34.6763070  58.2824810
  76.5020510  34.2951260  58.9250120  70.4399740  47.7983360  55.5744900
  69.9147360  48.1791390  54.8706860  70.3644320  48.4234130  56.2954610
  71.8290210  33.4630960  54.1728590  72.3582970  32.6760760  54.0436540
  72.4618530  34.1422150  54.4064120  74.0228050  33.2006100  57.2273980
  73.3930790  32.4993410  57.3944110  73.4833190  33.9610230  57.0107140
  74.1483610  32.4790080  69.6626470  73.8667880  32.9823680  68.8987290
  74.5303310  31.6811830  69.2968600  73.0392710  49.7465740  54.4494150
  73.7711530  49.4625020  53.9018040  73.2986380  49.5079020  55.3393530
  72.2007500  45.8630470  54.4540480  71.5716380  46.3315570  55.0026310
  72.3155330  45.0179690  54.8886670  71.8041090  42.0034960  43.3626710
  70.9725970  41.7483670  43.7623220  72.4122070  42.0745730  44.0984630
  71.7842350  46.0375050  43.5584730  72.0870390  45.1472790  43.3794950
  72.5285940  46.5945270  43.3306980  70.2133040  36.9636850  37.1469100
  69.3249740  37.3052820  37.0448980  70.4974230  36.7637170  36.2549930
  68.1766050  39.5642500  43.0308800  68.7482160  38.7964700  43.0312440
  68.1767590  39.8631260  42.1215410  69.4190920  34.9726860  44.8177730
  69.2393760  34.0752610  45.0980490  69.0171000  35.5198730  45.4924680
  72.3894430  35.5468350  38.1807480  72.4961180  36.4472080  38.4876240
  71.4786790  35.4986320  37.8902130  70.0377590  37.4687360  43.4260070
  70.7187700  37.7325730  44.0447470  69.7225640  36.6288230  43.7598080
  74.2302160  38.5154720  42.5132660  74.7380380  39.0135690  43.1537680
  74.7615400  37.7389920  42.3372020  72.5138260  33.1553280  46.7796080
  72.5156700  33.6725670  45.9741980  71.6842570  32.6783460  46.7566010
  73.7641110  42.7948460  44.9569580  73.4310490  43.4217380  45.5990650
  73.9407790  43.3210340  44.1771250  72.1953590  34.8663240  44.7866530
  72.5370400  35.7105290  44.4920400  71.2569400  35.0146980  44.9031870
  72.9760210  44.7629260  46.7718760  73.5934210  45.4380340  46.4903210
  72.1153330  45.1717240  46.6806260  68.2692550  43.9529120  35.6525610
  67.8920530  44.4416220  34.9210510  68.5265620  44.6254400  36.2832140
  75.8781480  32.3545510  41.1111120  76.1856460  31.7992400  40.3946620
  74.9482180  32.4889970  40.9284110  73.8718880  40.9459080  40.6290970
  73.4675880  40.2336330  40.1336870  73.9582000  40.6012320  41.5179010
  74.3400580  44.6326640  42.7930180  74.0428870  44.0272110  42.1137960
  75.2900400  44.6703950  42.6819540  72.5847500  37.7202290  44.4090010
  73.1362090  37.8297630  43.6343260  73.0991010  38.0939890  45.1245240
  73.4319010  44.3708330  49.4437980  72.5347540  44.5948300  49.6911380
  73.4571880  44.4943270  48.4949380  72.2590230  41.2421650  48.0195350
  72.1198000  42.1144450  48.3882750  71.3771590  40.8994460  47.8743290
  74.0570580  47.1843350  50.2280500  74.0286010  47.5886300  49.3608930
  73.8935550  46.2553710  50.0652100  70.5723510  39.8404060  38.1297620
  70.4521110  40.5666150  37.5178890  70.2624400  39.0706970  37.6525530
  68.2108880  43.0119200  43.9366260  68.2889300  43.1467970  42.9921980
  68.8250560  42.3035090  44.1294380  69.4556510  44.7119390  40.3472440
  69.0484590  44.8533980  39.4926040  70.3469520  44.4279550  40.1443650
  73.7278170  48.9265170  38.4595110  73.5520650  48.0100710  38.2462910
  72.8733910  49.2852460  38.6992910  68.2668400  44.0533370  46.4760720
  68.4299440  43.5838730  45.6580090  68.7320850  43.5456930  47.1409560
  73.0387170  33.1839130  41.5121290  72.5955320  33.9648670  41.1805810
  73.5972160  33.5069020  42.2192230  77.3256980  36.0507650  47.1156610
  76.8636350  36.2590670  47.9276550  76.9235090  35.2367000  46.8127280
  76.1545990  32.8049830  36.3927120  75.5300170  32.8009700  37.1180430
  76.0676110  31.9380790  35.9963090  75.0763070  33.7286460  43.3710890
  75.3735400  34.6349290  43.2902910  75.6248630  33.2405240  42.7570460
  72.8301390  38.3072700  39.2402540  72.6042310  38.0909870  40.1449160
  72.0493920  38.7401160  38.8948510  75.2700600  39.2058280  49.9062810
  75.1744200  38.2653010  49.7563210  76.1132580  39.4273350  49.5110880
  70.4011140  35.6171950  48.0596590  70.0074530  36.4647160  48.2669370
  69.7129540  34.9798320  48.2505230  67.7028190  33.5400410  42.0926670
  67.4141240  34.1103270  42.8051650  68.4473950  33.0604860  42.4557900
  67.8898420  37.4820530  33.3029390  67.8073090  38.4251290  33.4444380
  67.5381480  37.3395440  32.4241740  75.6896550  36.2159560  42.3699740
  75.6932610  35.7749510  41.5204280  76.5847670  36.5376890  42.4771560
  71.5398930  36.0986050  41.3293950  71.1998980  36.5761280  42.0861000
  70.7776250  35.6451170  40.9695050  75.7516700  37.2171640  35.3606500
  75.8729520  37.1758120  36.3092320  75.3665210  38.0795790  35.2053230
  74.7638200  39.5272780  34.7589800  74.1955100  39.0791030  34.1325710
  75.4727200  39.8865560  34.2254950  69.8407380  43.4284800  48.6356530
  69.4562170  42.7878470  49.2339490  70.1519570  44.1320920  49.2051260
  75.9904520  40.2761340  44.1165150  76.3574650  39.8019910  44.8626490
  75.8009580  41.1502910  44.4573490  68.8545010  35.0205030  40.2458620
  68.5691930  34.6560700  41.0837240  68.7923870  34.2885490  39.6321760
  73.7803890  39.3169980  46.4349360  73.4760960  40.1961960  46.6599720
  74.7350350  39.3769770  46.4706800  72.3085680  43.5230970  37.0316210
  71.5347940  42.9828590  36.8714930  73.0380310  43.0037580  36.6933970
  72.3523080  43.1911350  40.6695020  72.8701750  42.3879610  40.6151910
  71.9007100  43.1290490  41.5111850  77.2392580  44.4577630  35.9422320
  77.5808280  45.2019860  35.4465640  76.4105290  44.7708750  36.3047150
  69.8367620  40.1572720  47.5820720  69.4782560  40.8226570  48.1694060
  69.5422180  39.3256270  47.9533340  73.0380740  40.6156960  50.4660270
  72.7380880  40.7614140  49.5688090  73.8091980  40.0562250  50.3733660
  76.2083270  44.5391160  38.7138240  76.8954400  45.0860370  39.0945830
  75.4215690  45.0831890  38.7487850  68.3475670  40.1563980  34.2055320
  69.2170520  40.4388780  34.4891240  67.8565990  40.9699850  34.0904130
  75.5110480  41.5437190  38.3263600  75.9673260  42.3542440  38.5523790
  75.1598690  41.2260330  39.1582090  71.4122260  31.8874840  38.7986120
  71.2836890  31.8792740  39.7471040  70.5884280  32.2257930  38.4477130
  68.7146920  49.3691360  34.7716950  69.0744560  49.9680700  34.1174220
  68.5739260  49.9151250  35.5451980  68.4116190  33.6465960  48.2592820
  67.6974710  33.8462880  48.8645430  68.8311230  32.8705530  48.6307620
  68.6988780  47.6346220  49.2459350  68.8079900  46.6940960  49.1054740
  68.0469340  47.9000970  48.5973080  76.6901370  45.9062110  50.6457470
  76.3698240  45.1871350  51.1903160  76.0159730  46.5817180  50.7193530
  74.7315540  46.7522560  35.5890620  74.7225640  47.4852250  34.9735130
  73.8113900  46.5054140  35.6817580  70.3322180  41.9737450  36.3337380
  69.7250130  42.7136350  36.3432680  70.8071530  42.0636810  35.5075580
  75.2401030  37.3731160  38.2339710  74.5317180  37.8417500  38.6753320
  75.5245510  36.7153170  38.8684900  76.8656960  38.7927860  46.2332240
  77.3642210  39.2673680  46.8984090  77.0079910  37.8691380  46.4402270
  76.3593250  49.3337120  38.9463480  76.6134750  49.2958510  38.0242850
  75.4105730  49.2070450  38.9391730  73.4436050  35.6816240  35.6090420
  74.2926580  36.1186390  35.5430610  73.0767320  35.9936500  36.4362480
  72.3427470  41.9348600  34.0825950  73.1090740  41.8229960  34.6451380
  72.4202160  41.2386570  33.4302720  71.0374230  39.3673670  34.7658840
  71.1177820  38.4201180  34.8776240  71.9293980  39.6980550  34.8719500
  71.8388940  49.5169060  41.8693380  72.5751420  48.9684520  42.1401950
  72.2229860  50.3825070  41.7299370  68.7234420  45.5842630  37.7434890
  67.7974200  45.8263770  37.7340300  69.1890850  46.4116890  37.6219640
  70.8447220  48.7015130  51.0578960  71.6459950  49.0227180  51.4714360
  70.3299040  48.3410710  51.7798870  74.9491250  48.6899370  33.6918950
  75.7419860  48.9788200  33.2400740  74.4295600  48.2591540  33.0131430
  68.5645030  41.1888590  50.0015010  69.0684050  40.6095870  50.5731240
  67.8252450  41.4728820  50.5391380  75.4668650  43.9102780  33.5561300
  75.3619290  43.2955130  34.2822680  75.2992870  43.3868670  32.7724310
  75.6182970  42.5959580  49.5350530  74.8528640  43.1644580  49.4505200
  75.7998930  42.3035790  48.6418760  70.5968110  39.3318180  50.8965080
  70.6373450  39.0332050  51.8050310  71.4513610  39.7325790  50.7372600
  74.3746500  41.9313730  36.0568590  74.7962920  41.7653600  36.8999980
  74.4997340  41.1213960  35.5623730  72.5373920  37.9110280  48.8639570
  72.0070380  37.4201230  48.2362910  73.2061990  38.3394480  48.3297500
  76.8874140  40.9551340  33.3045690  77.4079800  40.2400360  32.9386840
  77.5342540  41.5937210  33.6046200  73.0246220  34.8772650  48.9436860
  72.9303090  34.2593400  48.2187730  72.4443610  35.6038940  48.7166770
  75.7907660  33.4345890  45.9764250  75.3424960  33.4570150  45.1309800
  75.1572860  33.0364910  46.5734550  76.1967210  42.3300220  46.5976690
  76.6155320  43.1732950  46.4252930  75.2775840  42.4672260  46.3683470
  73.2705400  38.0046960  33.0026750  73.0694460  37.1414320  33.3640090
  73.0997450  37.9180320  32.0648350  74.0474630  48.6353230  47.7134420
  73.5095720  49.3599290  47.3943120  74.3008590  48.1583570  46.9231760
  75.2999880  36.6037750  49.2390350  75.8899570  36.2953600  49.9268170
  74.4820120  36.1317500  49.3950250  72.0688200  35.1047580  32.9904630
  72.3714100  35.1115010  32.0823780  72.8082790  34.7545440  33.4872290
  76.9036840  49.8704440  47.9721070  76.8295540  50.7739580  48.2793440
  76.0015680  49.5516340  47.9443140  75.2873130  34.0482200  33.9760830
  74.9395130  33.3706190  33.3963280  75.4885900  33.5871710  34.7904220
  71.0918330  44.4090000  33.8234430  71.5293200  44.9519670  34.4792010
  71.5766060  43.5836950  33.8330770  68.3064130  47.1979030  41.2754690
  68.6367140  46.3300090  41.0433330  68.7355130  47.4037550  42.1059650
  72.9026050  45.5288040  38.9356660  72.6021590  45.4053010  39.8360570
  72.7963540  44.6696630  38.5272390  68.7954340  48.0649620  44.0136320
  68.3585330  48.2450420  44.8460470  69.3632020  48.8224240  43.8718040
  68.6278770  40.5769850  40.3725200  67.9727610  40.3081490  39.7284900
  69.4656720  40.4674330  39.9227180  69.6654700  40.9622420  44.9128540
  70.0327740  40.8749820  45.7924560  69.0965520  40.1988970  44.8135400
  69.2170700  37.8731510  48.8186960  68.3226750  37.8398270  49.1580670
  69.7568250  38.0718300  49.5838210  67.8416850  37.7868780  36.3150530
  66.9380930  38.0498980  36.1402190  68.3257470  38.0579950  35.5350490
  70.3844060  36.8434320  34.2244910  71.0935760  36.4217540  33.7392190
  69.6684000  36.9109550  33.5928260  70.0318220  32.8973650  33.2647560
  70.7546350  33.4382590  33.5828780  70.3042740  32.6237070  32.3889100
  69.7210410  32.1479840  43.1670180  70.3686600  31.5977220  42.7265340
  70.1412250  32.4022990  43.9885990  69.4742410  32.3035510  45.9095500
  69.1257230  32.7599330  46.6753680  69.1430110  31.4092640  45.9917930
  71.0806780  45.4755110  50.0748690  71.0376410  45.1048020  50.9563150
  71.2117790  46.4132680  50.2150510  74.7812810  47.0314700  45.6758410
  74.5404170  47.2989260  44.7888930  75.7215450  47.2020430  45.7309270
  70.1463050  31.8311710  49.1846270  70.6946040  31.6499760  48.4212380
  70.2118360  31.0405820  49.7202580  70.9194810  48.4217360  47.1946470
  70.3255130  48.2902060  47.9336510  70.9118650  47.5855500  46.7288570
  70.5507040  45.7875740  46.1454510  69.8241100  45.1681030  46.0780460
  70.6116190  46.1816350  45.2752590  74.1552140  48.0020740  42.9303920
  74.6717160  47.3908100  42.4052180  74.8049520  48.5049520  43.4214930
  76.8947640  48.8929230  43.7572900  77.1825450  48.6383530  42.8805910
  77.4070860  48.3406590  44.3478470  68.8337040  49.1050130  39.3551270
  68.6659080  48.4720810  40.0533160  67.9671550  49.3109530  39.0045460
  69.4565060  32.9366910  36.8583130  70.2144420  33.0495790  36.2847160
  68.9942230  33.7736110  36.8126560  75.9978870  35.0506180  39.8485440
  75.1853380  34.6763070  39.5081320  76.5020510  34.2951260  40.1506630
  70.4399740  47.7983360  36.8001410  69.9147360  48.1791390  36.0963370
  70.3644320  48.4234130  37.5211120  71.8290210  33.4630960  35.3985100
  72.3582970  32.6760760  35.2693050  72.4618530  34.1422150  35.6320630
  74.0228050  33.2006100  38.4530490  73.3930790  32.4993410  38.6200620
  73.4833190  33.9610230  38.2363650  74.1483610  32.4790080  50.8882980
  73.8667880  32.9823680  50.1243800  74.5303310  31.6811830  50.5225110
  73.0392710  49.7465740  35.6750660  73.7711530  49.4625020  35.1274550
  73.2986380  49.5079020  36.5650040  72.2007500  45.8630470  35.6796990
  71.5716380  46.3315570  36.2282820  72.3155330  45.0179690  36.1143180
  71.8041090  42.0034960  24.5883220  70.9725970  41.7483670  24.9879730
  72.4122070  42.0745730  25.3241140  71.7842350  46.0375050  24.7841240
  72.0870390  45.1472790  24.6051460  72.5285940  46.5945270  24.5563490
  70.2133040  36.9636850  18.3725610  69.3249740  37.3052820  18.2705490
  70.4974230  36.7637170  17.4806440  68.1766050  39.5642500  24.2565310
  68.7482160  38.7964700  24.2568950  68.1767590  39.8631260  23.3471920
  69.4190920  34.9726860  26.0434240  69.2393760  34.0752610  26.3237000
  69.0171000  35.5198730  26.7181190  72.3894430  35.5468350  19.4063990
  72.4961180  36.4472080  19.7132750  71.4786790  35.4986320  19.1158640
  70.0377590  37.4687360  24.6516580  70.7187700  37.7325730  25.2703980
  69.7225640  36.6288230  24.9854590  74.2302160  38.5154720  23.7389170
  74.7380380  39.0135690  24.3794190  74.7615400  37.7389920  23.5628530
  72.5138260  33.1553280  28.0052590  72.5156700  33.6725670  27.1998490
  71.6842570  32.6783460  27.9822520  73.7641110  42.7948460  26.1826090
  73.4310490  43.4217380  26.8247160  73.9407790  43.3210340  25.4027760
  72.1953590  34.8663240  26.0123040  72.5370400  35.7105290  25.7176910
  71.2569400  35.0146980  26.1288380  72.9760210  44.7629260  27.9975270
  73.5934210  45.4380340  27.7159720  72.1153330  45.1717240  27.9062770
  68.2692550  43.9529120  16.8782120  67.8920530  44.4416220  16.1467020
  68.5265620  44.6254400  17.5088650  75.8781480  32.3545510  22.3367630
  76.1856460  31.7992400  21.6203130  74.9482180  32.4889970  22.1540620
  73.8718880  40.9459080  21.8547480  73.4675880  40.2336330  21.3593380
  73.9582000  40.6012320  22.7435520  74.3400580  44.6326640  24.0186690
  74.0428870  44.0272110  23.3394470  75.2900400  44.6703950  23.9076050
  72.5847500  37.7202290  25.6346520  73.1362090  37.8297630  24.8599770
  73.0991010  38.0939890  26.3501750  73.4319010  44.3708330  30.6694490
  72.5347540  44.5948300  30.9167890  73.4571880  44.4943270  29.7205890
  72.2590230  41.2421650  29.2451860  72.1198000  42.1144450  29.6139260
  71.3771590  40.8994460  29.0999800  74.0570580  47.1843350  31.4537010
  74.0286010  47.5886300  30.5865440  73.8935550  46.2553710  31.2908610
  70.5723510  39.8404060  19.3554130  70.4521110  40.5666150  18.7435400
  70.2624400  39.0706970  18.8782040  68.2108880  43.0119200  25.1622770
  68.2889300  43.1467970  24.2178490  68.8250560  42.3035090  25.3550890
  69.4556510  44.7119390  21.5728950  69.0484590  44.8533980  20.7182550
  70.3469520  44.4279550  21.3700160  73.7278170  48.9265170  19.6851620
  73.5520650  48.0100710  19.4719420  72.8733910  49.2852460  19.9249420
  68.2668400  44.0533370  27.7017230  68.4299440  43.5838730  26.8836600
  68.7320850  43.5456930  28.3666070  73.0387170  33.1839130  22.7377800
  72.5955320  33.9648670  22.4062320  73.5972160  33.5069020  23.4448740
  77.3256980  36.0507650  28.3413120  76.8636350  36.2590670  29.1533060
  76.9235090  35.2367000  28.0383790  76.1545990  32.8049830  17.6183630
  75.5300170  32.8009700  18.3436940  76.0676110  31.9380790  17.2219600
  75.0763070  33.7286460  24.5967400  75.3735400  34.6349290  24.5159420
  75.6248630  33.2405240  23.9826970  72.8301390  38.3072700  20.4659050
  72.6042310  38.0909870  21.3705670  72.0493920  38.7401160  20.1205020
  75.2700600  39.2058280  31.1319320  75.1744200  38.2653010  30.9819720
  76.1132580  39.4273350  30.7367390  70.4011140  35.6171950  29.2853100
  70.0074530  36.4647160  29.4925880  69.7129540  34.9798320  29.4761740
  67.7028190  33.5400410  23.3183180  67.4141240  34.1103270  24.0308160
  68.4473950  33.0604860  23.6814410  67.8898420  37.4820530  14.5285900
  67.8073090  38.4251290  14.6700890  67.5381480  37.3395440  13.6498250
  75.6896550  36.2159560  23.5956250  75.6932610  35.7749510  22.7460790
  76.5847670  36.5376890  23.7028070  71.5398930  36.0986050  22.5550460
  71.1998980  36.5761280  23.3117510  70.7776250  35.6451170  22.1951560
  75.7516700  37.2171640  16.5863010  75.8729520  37.1758120  17.5348830
  75.3665210  38.0795790  16.4309740  74.7638200  39.5272780  15.9846310
  74.1955100  39.0791030  15.3582220  75.4727200  39.8865560  15.4511460
  69.8407380  43.4284800  29.8613040  69.4562170  42.7878470  30.4596000
  70.1519570  44.1320920  30.4307770  75.9904520  40.2761340  25.3421660
  76.3574650  39.8019910  26.0883000  75.8009580  41.1502910  25.6830000
  68.8545010  35.0205030  21.4715130  68.5691930  34.6560700  22.3093750
  68.7923870  34.2885490  20.8578270  73.7803890  39.3169980  27.6605870
  73.4760960  40.1961960  27.8856230  74.7350350  39.3769770  27.6963310
  72.3085680  43.5230970  18.2572720  71.5347940  42.9828590  18.0971440
  73.0380310  43.0037580  17.9190480  72.3523080  43.1911350  21.8951530
  72.8701750  42.3879610  21.8408420  71.9007100  43.1290490  22.7368360
  77.2392580  44.4577630  17.1678830  77.5808280  45.2019860  16.6722150
  76.4105290  44.7708750  17.5303660  69.8367620  40.1572720  28.8077230
  69.4782560  40.8226570  29.3950570  69.5422180  39.3256270  29.1789850
  73.0380740  40.6156960  31.6916780  72.7380880  40.7614140  30.7944600
  73.8091980  40.0562250  31.5990170  76.2083270  44.5391160  19.9394750
  76.8954400  45.0860370  20.3202340  75.4215690  45.0831890  19.9744360
  68.3475670  40.1563980  15.4311830  69.2170520  40.4388780  15.7147750
  67.8565990  40.9699850  15.3160640  75.5110480  41.5437190  19.5520110
  75.9673260  42.3542440  19.7780300  75.1598690  41.2260330  20.3838600
  71.4122260  31.8874840  20.0242630  71.2836890  31.8792740  20.9727550
  70.5884280  32.2257930  19.6733640  68.7146920  49.3691360  15.9973460
  69.0744560  49.9680700  15.3430730  68.5739260  49.9151250  16.7708490
  68.4116190  33.6465960  29.4849330  67.6974710  33.8462880  30.0901940
  68.8311230  32.8705530  29.8564130  68.6988780  47.6346220  30.4715860
  68.8079900  46.6940960  30.3311250  68.0469340  47.9000970  29.8229590
  76.6901370  45.9062110  31.8713980  76.3698240  45.1871350  32.4159670
  76.0159730  46.5817180  31.9450040  74.7315540  46.7522560  16.8147130
  74.7225640  47.4852250  16.1991640  73.8113900  46.5054140  16.9074090
  70.3322180  41.9737450  17.5593890  69.7250130  42.7136350  17.5689190
  70.8071530  42.0636810  16.7332090  75.2401030  37.3731160  19.4596220
  74.5317180  37.8417500  19.9009830  75.5245510  36.7153170  20.0941410
  76.8656960  38.7927860  27.4588750  77.3642210  39.2673680  28.1240600
  77.0079910  37.8691380  27.6658780  76.3593250  49.3337120  20.1719990
  76.6134750  49.2958510  19.2499360  75.4105730  49.2070450  20.1648240
  73.4436050  35.6816240  16.8346930  74.2926580  36.1186390  16.7687120
  73.0767320  35.9936500  17.6618990  72.3427470  41.9348600  15.3082460
  73.1090740  41.8229960  15.8707890  72.4202160  41.2386570  14.6559230
  71.0374230  39.3673670  15.9915350  71.1177820  38.4201180  16.1032750
  71.9293980  39.6980550  16.0976010  71.8388940  49.5169060  23.0949890
  72.5751420  48.9684520  23.3658460  72.2229860  50.3825070  22.9555880
  68.7234420  45.5842630  18.9691400  67.7974200  45.8263770  18.9596810
  69.1890850  46.4116890  18.8476150  70.8447220  48.7015130  32.2835470
  71.6459950  49.0227180  32.6970870  70.3299040  48.3410710  33.0055380
  74.9491250  48.6899370  14.9175460  75.7419860  48.9788200  14.4657250
  74.4295600  48.2591540  14.2387940  68.5645030  41.1888590  31.2271520
  69.0684050  40.6095870  31.7987750  67.8252450  41.4728820  31.7647890
  75.4668650  43.9102780  14.7817810  75.3619290  43.2955130  15.5079190
  75.2992870  43.3868670  13.9980820  75.6182970  42.5959580  30.7607040
  74.8528640  43.1644580  30.6761710  75.7998930  42.3035790  29.8675270
  70.5968110  39.3318180  32.1221590  70.6373450  39.0332050  33.0306820
  71.4513610  39.7325790  31.9629110  74.3746500  41.9313730  17.2825100
  74.7962920  41.7653600  18.1256490  74.4997340  41.1213960  16.7880240
  72.5373920  37.9110280  30.0896080  72.0070380  37.4201230  29.4619420
  73.2061990  38.3394480  29.5554010  76.8874140  40.9551340  14.5302200
  77.4079800  40.2400360  14.1643350  77.5342540  41.5937210  14.8302710
  73.0246220  34.8772650  30.1693370  72.9303090  34.2593400  29.4444240
  72.4443610  35.6038940  29.9423280  75.7907660  33.4345890  27.2020760
  75.3424960  33.4570150  26.3566310  75.1572860  33.0364910  27.7991060
  76.1967210  42.3300220  27.8233200  76.6155320  43.1732950  27.6509440
  75.2775840  42.4672260  27.5939980  73.2705400  38.0046960  14.2283260
  73.0694460  37.1414320  14.5896600  73.0997450  37.9180320  13.2904860
  74.0474630  48.6353230  28.9390930  73.5095720  49.3599290  28.6199630
  74.3008590  48.1583570  28.1488270  75.2999880  36.6037750  30.4646860
  75.8899570  36.2953600  31.1524680  74.4820120  36.1317500  30.6206760
  72.0688200  35.1047580  14.2161140  72.3714100  35.1115010  13.3080290
  72.8082790  34.7545440  14.7128800  76.9036840  49.8704440  29.1977580
  76.8295540  50.7739580  29.5049950  76.0015680  49.5516340  29.1699650
  75.2873130  34.0482200  15.2017340  74.9395130  33.3706190  14.6219790
  75.4885900  33.5871710  16.0160730  71.0918330  44.4090000  15.0490940
  71.5293200  44.9519670  15.7048520  71.5766060  43.5836950  15.0587280
  68.3064130  47.1979030  22.5011200  68.6367140  46.3300090  22.2689840
  68.7355130  47.4037550  23.3316160  72.9026050  45.5288040  20.1613170
  72.6021590  45.4053010  21.0617080  72.7963540  44.6696630  19.7528900
  68.7954340  48.0649620  25.2392830  68.3585330  48.2450420  26.0716980
  69.3632020  48.8224240  25.0974550  68.6278770  40.5769850  21.5981710
  67.9727610  40.3081490  20.9541410  69.4656720  40.4674330  21.1483690
  69.6654700  40.9622420  26.1385050  70.0327740  40.8749820  27.0181070
  69.0965520  40.1988970  26.0391910  69.2170700  37.8731510  30.0443470
  68.3226750  37.8398270  30.3837180  69.7568250  38.0718300  30.8094720
  67.8416850  37.7868780  17.5407040  66.9380930  38.0498980  17.3658700
  68.3257470  38.0579950  16.7607000  70.3844060  36.8434320  15.4501420
  71.0935760  36.4217540  14.9648700  69.6684000  36.9109550  14.8184770
  70.0318220  32.8973650  14.4904070  70.7546350  33.4382590  14.8085290
  70.3042740  32.6237070  13.6145610  69.7210410  32.1479840  24.3926690
  70.3686600  31.5977220  23.9521850  70.1412250  32.4022990  25.2142500
  69.4742410  32.3035510  27.1352010  69.1257230  32.7599330  27.9010190
  69.1430110  31.4092640  27.2174440  71.0806780  45.4755110  31.3005200
  71.0376410  45.1048020  32.1819660  71.2117790  46.4132680  31.4407020
  74.7812810  47.0314700  26.9014920  74.5404170  47.2989260  26.0145440
  75.7215450  47.2020430  26.9565780  70.1463050  31.8311710  30.4102780
  70.6946040  31.6499760  29.6468890  70.2118360  31.0405820  30.9459090
  70.9194810  48.4217360  28.4202980  70.3255130  48.2902060  29.1593020
  70.9118650  47.5855500  27.9545080  70.5507040  45.7875740  27.3711020
  69.8241100  45.1681030  27.3036970  70.6116190  46.1816350  26.5009100
  74.1552140  48.0020740  24.1560430  74.6717160  47.3908100  23.6308690
  74.8049520  48.5049520  24.6471440  76.8947640  48.8929230  24.9829410
  77.1825450  48.6383530  24.1062420  77.4070860  48.3406590  25.5734980
  68.8337040  49.1050130  20.5807780  68.6659080  48.4720810  21.2789670
  67.9671550  49.3109530  20.2301970  69.4565060  32.9366910  18.0839640
  70.2144420  33.0495790  17.5103670  68.9942230  33.7736110  18.0383070
  75.9978870  35.0506180  21.0741950  75.1853380  34.6763070  20.7337830
  76.5020510  34.2951260  21.3763140  70.4399740  47.7983360  18.0257920
  69.9147360  48.1791390  17.3219880  70.3644320  48.4234130  18.7467630
  71.8290210  33.4630960  16.6241610  72.3582970  32.6760760  16.4949560
  72.4618530  34.1422150  16.8577140  74.0228050  33.2006100  19.6787000
  73.3930790  32.4993410  19.8457130  73.4833190  33.9610230  19.4620160
  74.1483610  32.4790080  32.1139490  73.8667880  32.9823680  31.3500310
  74.5303310  31.6811830  31.7481620  73.0392710  49.7465740  16.9007170
  73.7711530  49.4625020  16.3531060  73.2986380  49.5079020  17.7906550
  72.2007500  45.8630470  16.9053500  71.5716380  46.3315570  17.4539330
  72.3155330  45.0179690  17.3399690  71.8041090  42.0034960   5.8139730
  70.9725970  41.7483670   6.2136240  72.4122070  42.0745730   6.5497650
  71.7842350  46.0375050   6.0097750  72.0870390  45.1472790   5.8307970
  72.5285940  46.5945270   5.7820000  68.1766050  39.5642500   5.4821820
  68.7482160  38.7964700   5.4825460  68.1767590  39.8631260   4.5728430
  69.4190920  34.9726860   7.2690750  69.2393760  34.0752610   7.5493510
  69.0171000  35.5198730   7.9437700  70.0377590  37.4687360   5.8773090
  70.7187700  37.7325730   6.4960490  69.7225640  36.6288230   6.2111100
  74.2302160  38.5154720   4.9645680  74.7380380  39.0135690   5.6050700
  74.7615400  37.7389920   4.7885040  72.5138260  33.1553280   9.2309100
  72.5156700  33.6725670   8.4255000  71.6842570  32.6783460   9.2079030
  73.7641110  42.7948460   7.4082600  73.4310490  43.4217380   8.0503670
  73.9407790  43.3210340   6.6284270  72.1953590  34.8663240   7.2379550
  72.5370400  35.7105290   6.9433420  71.2569400  35.0146980   7.3544890
  72.9760210  44.7629260   9.2231780  73.5934210  45.4380340   8.9416230
  72.1153330  45.1717240   9.1319280  75.8781480  32.3545510   3.5624140
  76.1856460  31.7992400   2.8459640  74.9482180  32.4889970   3.3797130
  73.8718880  40.9459080   3.0803990  73.4675880  40.2336330   2.5849890
  73.9582000  40.6012320   3.9692030  74.3400580  44.6326640   5.2443200
  74.0428870  44.0272110   4.5650980  75.2900400  44.6703950   5.1332560
  72.5847500  37.7202290   6.8603030  73.1362090  37.8297630   6.0856280
  73.0991010  38.0939890   7.5758260  73.4319010  44.3708330  11.8951000
  72.5347540  44.5948300  12.1424400  73.4571880  44.4943270  10.9462400
  72.2590230  41.2421650  10.4708370  72.1198000  42.1144450  10.8395770
  71.3771590  40.8994460  10.3256310  74.0570580  47.1843350  12.6793520
  74.0286010  47.5886300  11.8121950  73.8935550  46.2553710  12.5165120
  68.2108880  43.0119200   6.3879280  68.2889300  43.1467970   5.4435000
  68.8250560  42.3035090   6.5807400  69.4556510  44.7119390   2.7985460
  69.0484590  44.8533980   1.9439060  70.3469520  44.4279550   2.5956670
  68.2668400  44.0533370   8.9273740  68.4299440  43.5838730   8.1093110
  68.7320850  43.5456930   9.5922580  73.0387170  33.1839130   3.9634310
  72.5955320  33.9648670   3.6318830  73.5972160  33.5069020   4.6705250
  77.3256980  36.0507650   9.5669630  76.8636350  36.2590670  10.3789570
  76.9235090  35.2367000   9.2640300  75.0763070  33.7286460   5.8223910
  75.3735400  34.6349290   5.7415930  75.6248630  33.2405240   5.2083480
  75.2700600  39.2058280  12.3575830  75.1744200  38.2653010  12.2076230
  76.1132580  39.4273350  11.9623900  70.4011140  35.6171950  10.5109610
  70.0074530  36.4647160  10.7182390  69.7129540  34.9798320  10.7018250
  67.7028190  33.5400410   4.5439690  67.4141240  34.1103270   5.2564670
  68.4473950  33.0604860   4.9070920  75.6896550  36.2159560   4.8212760
  75.6932610  35.7749510   3.9717300  76.5847670  36.5376890   4.9284580
  71.5398930  36.0986050   3.7806970  71.1998980  36.5761280   4.5374020
  70.7776250  35.6451170   3.4208070  69.8407380  43.4284800  11.0869550
  69.4562170  42.7878470  11.6852510  70.1519570  44.1320920  11.6564280
  75.9904520  40.2761340   6.5678170  76.3574650  39.8019910   7.3139510
  75.8009580  41.1502910   6.9086510  68.8545010  35.0205030   2.6971640
  68.5691930  34.6560700   3.5350260  68.7923870  34.2885490   2.0834780
  73.7803890  39.3169980   8.8862380  73.4760960  40.1961960   9.1112740
  74.7350350  39.3769770   8.9219820  72.3523080  43.1911350   3.1208040
  72.8701750  42.3879610   3.0664930  71.9007100  43.1290490   3.9624870
  69.8367620  40.1572720  10.0333740  69.4782560  40.8226570  10.6207080
  69.5422180  39.3256270  10.4046360  73.0380740  40.6156960  12.9173290
  72.7380880  40.7614140  12.0201110  73.8091980  40.0562250  12.8246680
  68.4116190  33.6465960  10.7105840  67.6974710  33.8462880  11.3158450
  68.8311230  32.8705530  11.0820640  68.6988780  47.6346220  11.6972370
  68.8079900  46.6940960  11.5567760  68.0469340  47.9000970  11.0486100
  76.6901370  45.9062110  13.0970490  76.3698240  45.1871350  13.6416180
  76.0159730  46.5817180  13.1706550  76.8656960  38.7927860   8.6845260
  77.3642210  39.2673680   9.3497110  77.0079910  37.8691380   8.8915290
  71.8388940  49.5169060   4.3206400  72.5751420  48.9684520   4.5914970
  72.2229860  50.3825070   4.1812390  70.8447220  48.7015130  13.5091980
  71.6459950  49.0227180  13.9227380  70.3299040  48.3410710  14.2311890
  68.5645030  41.1888590  12.4528030  69.0684050  40.6095870  13.0244260
  67.8252450  41.4728820  12.9904400  75.6182970  42.5959580  11.9863550
  74.8528640  43.1644580  11.9018220  75.7998930  42.3035790  11.0931780
  70.5968110  39.3318180  13.3478100  70.6373450  39.0332050  14.2563330
  71.4513610  39.7325790  13.1885620  72.5373920  37.9110280  11.3152590
  72.0070380  37.4201230  10.6875930  73.2061990  38.3394480  10.7810520
  73.0246220  34.8772650  11.3949880  72.9303090  34.2593400  10.6700750
  72.4443610  35.6038940  11.1679790  75.7907660  33.4345890   8.4277270
  75.3424960  33.4570150   7.5822820  75.1572860  33.0364910   9.0247570
  76.1967210  42.3300220   9.0489710  76.6155320  43.1732950   8.8765950
  75.2775840  42.4672260   8.8196490  74.0474630  48.6353230  10.1647440
  73.5095720  49.3599290   9.8456140  74.3008590  48.1583570   9.3744780
  75.2999880  36.6037750  11.6903370  75.8899570  36.2953600  12.3781190
  74.4820120  36.1317500  11.8463270  76.9036840  49.8704440  10.4234090
  76.8295540  50.7739580  10.7306460  76.0015680  49.5516340  10.3956160
  68.3064130  47.1979030   3.7267710  68.6367140  46.3300090   3.4946350
  68.7355130  47.4037550   4.5572670  68.7954340  48.0649620   6.4649340
  68.3585330  48.2450420   7.2973490  69.3632020  48.8224240   6.3231060
  68.6278770  40.5769850   2.8238220  67.9727610  40.3081490   2.1797920
  69.4656720  40.4674330   2.3740200  69.6654700  40.9622420   7.3641560
  70.0327740  40.8749820   8.2437580  69.0965520  40.1988970   7.2648420
  69.2170700  37.8731510  11.2699980  68.3226750  37.8398270  11.6093690
  69.7568250  38.0718300  12.0351230  69.7210410  32.1479840   5.6183200
  70.3686600  31.5977220   5.1778360  70.1412250  32.4022990   6.4399010
  69.4742410  32.3035510   8.3608520  69.1257230  32.7599330   9.1266700
  69.1430110  31.4092640   8.4430950  71.0806780  45.4755110  12.5261710
  71.0376410  45.1048020  13.4076170  71.2117790  46.4132680  12.6663530
  74.7812810  47.0314700   8.1271430  74.5404170  47.2989260   7.2401950
  75.7215450  47.2020430   8.1822290  70.1463050  31.8311710  11.6359290
  70.6946040  31.6499760  10.8725400  70.2118360  31.0405820  12.1715600
  70.9194810  48.4217360   9.6459490  70.3255130  48.2902060  10.3849530
  70.9118650  47.5855500   9.1801590  70.5507040  45.7875740   8.5967530
  69.8241100  45.1681030   8.5293480  70.6116190  46.1816350   7.7265610
  74.1552140  48.0020740   5.3816940  74.6717160  47.3908100   4.8565200
  74.8049520  48.5049520   5.8727950  76.8947640  48.8929230   6.2085920
  77.1825450  48.6383530   5.3318930  77.4070860  48.3406590   6.7991490
  75.9978870  35.0506180   2.2998460  75.1853380  34.6763070   1.9594340
  76.5020510  34.2951260   2.6019650  74.1483610  32.4790080  13.3396000
  73.8667880  32.9823680  12.5756820  74.5303310  31.6811830  12.9738130
  71.8041090  23.2291470  99.6857180  70.9725970  22.9740180 100.0853690
  72.4122070  23.3002240 100.4215100  71.7842350  27.2631560  99.8815200
  72.0870390  26.3729300  99.7025420  72.5285940  27.8201780  99.6537450
  70.2133040  18.1893360  93.4699570  69.3249740  18.5309330  93.3679450
  70.4974230  17.9893680  92.5780400  68.1766050  20.7899010  99.3539270
  68.7482160  20.0221210  99.3542910  68.1767590  21.0887770  98.4445880
  72.3894430  16.7724860  94.5037950  72.4961180  17.6728590  94.8106710
  71.4786790  16.7242830  94.2132600  70.0377590  18.6943870  99.7490540
  70.7187700  18.9582240 100.3677940  69.7225640  17.8544740 100.0828550
  74.2302160  19.7411230  98.8363130  74.7380380  20.2392200  99.4768150
  74.7615400  18.9646430  98.6602490  72.1953590  16.0919750 101.1097000
  72.5370400  16.9361800 100.8150870  71.2569400  16.2403490 101.2262340
  68.2692550  25.1785630  91.9756080  67.8920530  25.6672730  91.2440980
  68.5265620  25.8510910  92.6062610  75.8781480  13.5802020  97.4341590
  76.1856460  13.0248910  96.7177090  74.9482180  13.7146480  97.2514580
  73.8718880  22.1715590  96.9521440  73.4675880  21.4592840  96.4567340
  73.9582000  21.8268830  97.8409480  74.3400580  25.8583150  99.1160650
  74.0428870  25.2528620  98.4368430  75.2900400  25.8960460  99.0050010
  72.5847500  18.9458800 100.7320480  73.1362090  19.0554140  99.9573730
  73.0991010  19.3196400 101.4475710  70.5723510  21.0660570  94.4528090
  70.4521110  21.7922660  93.8409360  70.2624400  20.2963480  93.9756000
  68.2108880  24.2375710 100.2596730  68.2889300  24.3724480  99.3152450
  68.8250560  23.5291600 100.4524850  69.4556510  25.9375900  96.6702910
  69.0484590  26.0790490  95.8156510  70.3469520  25.6536060  96.4674120
  73.7278170  30.1521680  94.7825580  73.5520650  29.2357220  94.5693380
  72.8733910  30.5108970  95.0223380  73.0387170  14.4095640  97.8351760
  72.5955320  15.1905180  97.5036280  73.5972160  14.7325530  98.5422700
  76.1545990  14.0306340  92.7157590  75.5300170  14.0266210  93.4410900
  76.0676110  13.1637300  92.3193560  75.0763070  14.9542970  99.6941360
  75.3735400  15.8605800  99.6133380  75.6248630  14.4661750  99.0800930
  72.8301390  19.5329210  95.5633010  72.6042310  19.3166380  96.4679630
  72.0493920  19.9657670  95.2178980  67.7028190  14.7656920  98.4157140
  67.4141240  15.3359780  99.1282120  68.4473950  14.2861370  98.7788370
  67.8898420  18.7077040  89.6259860  67.8073090  19.6507800  89.7674850
  67.5381480  18.5651950  88.7472210  75.6896550  17.4416070  98.6930210
  75.6932610  17.0006020  97.8434750  76.5847670  17.7633400  98.8002030
  71.5398930  17.3242560  97.6524420  71.1998980  17.8017790  98.4091470
  70.7776250  16.8707680  97.2925520  75.7516700  18.4428150  91.6836970
  75.8729520  18.4014630  92.6322790  75.3665210  19.3052300  91.5283700
  74.7638200  20.7529290  91.0820270  74.1955100  20.3047540  90.4556180
  75.4727200  21.1122070  90.5485420  75.9904520  21.5017850 100.4395620
  76.3574650  21.0276420 101.1856960  75.8009580  22.3759420 100.7803960
  68.8545010  16.2461540  96.5689090  68.5691930  15.8817210  97.4067710
  68.7923870  15.5142000  95.9552230  72.3085680  24.7487480  93.3546680
  71.5347940  24.2085100  93.1945400  73.0380310  24.2294090  93.0164440
  72.3523080  24.4167860  96.9925490  72.8701750  23.6136120  96.9382380
  71.9007100  24.3547000  97.8342320  77.2392580  25.6834140  92.2652790
  77.5808280  26.4276370  91.7696110  76.4105290  25.9965260  92.6277620
  76.2083270  25.7647670  95.0368710  76.8954400  26.3116880  95.4176300
  75.4215690  26.3088400  95.0718320  68.3475670  21.3820490  90.5285790
  69.2170520  21.6645290  90.8121710  67.8565990  22.1956360  90.4134600
  75.5110480  22.7693700  94.6494070  75.9673260  23.5798950  94.8754260
  75.1598690  22.4516840  95.4812560  71.4122260  13.1131350  95.1216590
  71.2836890  13.1049250  96.0701510  70.5884280  13.4514440  94.7707600
  68.7146920  30.5947870  91.0947420  69.0744560  31.1937210  90.4404690
  68.5739260  31.1407760  91.8682450  74.7315540  27.9779070  91.9121090
  74.7225640  28.7108760  91.2965600  73.8113900  27.7310650  92.0048050
  70.3322180  23.1993960  92.6567850  69.7250130  23.9392860  92.6663150
  70.8071530  23.2893320  91.8306050  75.2401030  18.5987670  94.5570180
  74.5317180  19.0674010  94.9983790  75.5245510  17.9409680  95.1915370
  76.3593250  30.5593630  95.2693950  76.6134750  30.5215020  94.3473320
  75.4105730  30.4326960  95.2622200  73.4436050  16.9072750  91.9320890
  74.2926580  17.3442900  91.8661080  73.0767320  17.2193010  92.7592950
  72.3427470  23.1605110  90.4056420  73.1090740  23.0486470  90.9681850
  72.4202160  22.4643080  89.7533190  71.0374230  20.5930180  91.0889310
  71.1177820  19.6457690  91.2006710  71.9293980  20.9237060  91.1949970
  71.8388940  30.7425570  98.1923850  72.5751420  30.1941030  98.4632420
  72.2229860  31.6081580  98.0529840  68.7234420  26.8099140  94.0665360
  67.7974200  27.0520280  94.0570770  69.1890850  27.6373400  93.9450110
  74.9491250  29.9155880  90.0149420  75.7419860  30.2044710  89.5631210
  74.4295600  29.4848050  89.3361900  75.4668650  25.1359290  89.8791770
  75.3619290  24.5211640  90.6053150  75.2992870  24.6125180  89.0954780
  74.3746500  23.1570240  92.3799060  74.7962920  22.9910110  93.2230450
  74.4997340  22.3470470  91.8854200  76.8874140  22.1807850  89.6276160
  77.4079800  21.4656870  89.2617310  77.5342540  22.8193720  89.9276670
  73.2705400  19.2303470  89.3257220  73.0694460  18.3670830  89.6870560
  73.0997450  19.1436830  88.3878820  72.0688200  16.3304090  89.3135100
  72.3714100  16.3371520  88.4054250  72.8082790  15.9801950  89.8102760
  75.2873130  15.2738710  90.2991300  74.9395130  14.5962700  89.7193750
  75.4885900  14.8128220  91.1134690  71.0918330  25.6346510  90.1464900
  71.5293200  26.1776180  90.8022480  71.5766060  24.8093460  90.1561240
  68.3064130  28.4235540  97.5985160  68.6367140  27.5556600  97.3663800
  68.7355130  28.6294060  98.4290120  72.9026050  26.7544550  95.2587130
  72.6021590  26.6309520  96.1591040  72.7963540  25.8953140  94.8502860
  68.7954340  29.2906130 100.3366790  68.3585330  29.4706930 101.1690940
  69.3632020  30.0480750 100.1948510  68.6278770  21.8026360  96.6955670
  67.9727610  21.5338000  96.0515370  69.4656720  21.6930840  96.2457650
  67.8416850  19.0125290  92.6381000  66.9380930  19.2755490  92.4632660
  68.3257470  19.2836460  91.8580960  70.3844060  18.0690830  90.5475380
  71.0935760  17.6474050  90.0622660  69.6684000  18.1366060  89.9158730
  70.0318220  14.1230160  89.5878030  70.7546350  14.6639100  89.9059250
  70.3042740  13.8493580  88.7119570  69.7210410  13.3736350  99.4900650
  70.3686600  12.8233730  99.0495810  70.1412250  13.6279500 100.3116460
  74.1552140  29.2277250  99.2534390  74.6717160  28.6164610  98.7282650
  74.8049520  29.7306030  99.7445400  76.8947640  30.1185740 100.0803370
  77.1825450  29.8640040  99.2036380  77.4070860  29.5663100 100.6708940
  68.8337040  30.3306640  95.6781740  68.6659080  29.6977320  96.3763630
  67.9671550  30.5366040  95.3275930  69.4565060  14.1623420  93.1813600
  70.2144420  14.2752300  92.6077630  68.9942230  14.9992620  93.1357030
  75.9978870  16.2762690  96.1715910  75.1853380  15.9019580  95.8311790
  76.5020510  15.5207770  96.4737100  70.4399740  29.0239870  93.1231880
  69.9147360  29.4047900  92.4193840  70.3644320  29.6490640  93.8441590
  71.8290210  14.6887470  91.7215570  72.3582970  13.9017270  91.5923520
  72.4618530  15.3678660  91.9551100  74.0228050  14.4262610  94.7760960
  73.3930790  13.7249920  94.9431090  73.4833190  15.1866740  94.5594120
  73.0392710  30.9722250  91.9981130  73.7711530  30.6881530  91.4505020
  73.2986380  30.7335530  92.8880510  72.2007500  27.0886980  92.0027460
  71.5716380  27.5572080  92.5513290  72.3155330  26.2436200  92.4373650
  71.8041090  23.2291470  80.9113690  70.9725970  22.9740180  81.3110200
  72.4122070  23.3002240  81.6471610  71.7842350  27.2631560  81.1071710
  72.0870390  26.3729300  80.9281930  72.5285940  27.8201780  80.8793960
  70.2133040  18.1893360  74.6956080  69.3249740  18.5309330  74.5935960
  70.4974230  17.9893680  73.8036910  68.1766050  20.7899010  80.5795780
  68.7482160  20.0221210  80.5799420  68.1767590  21.0887770  79.6702390
  69.4190920  16.1983370  82.3664710  69.2393760  15.3009120  82.6467470
  69.0171000  16.7455240  83.0411660  72.3894430  16.7724860  75.7294460
  72.4961180  17.6728590  76.0363220  71.4786790  16.7242830  75.4389110
  70.0377590  18.6943870  80.9747050  70.7187700  18.9582240  81.5934450
  69.7225640  17.8544740  81.3085060  74.2302160  19.7411230  80.0619640
  74.7380380  20.2392200  80.7024660  74.7615400  18.9646430  79.8859000
  72.5138260  14.3809790  84.3283060  72.5156700  14.8982180  83.5228960
  71.6842570  13.9039970  84.3052990  73.7641110  24.0204970  82.5056560
  73.4310490  24.6473890  83.1477630  73.9407790  24.5466850  81.7258230
  72.1953590  16.0919750  82.3353510  72.5370400  16.9361800  82.0407380
  71.2569400  16.2403490  82.4518850  72.9760210  25.9885770  84.3205740
  73.5934210  26.6636850  84.0390190  72.1153330  26.3973750  84.2293240
  68.2692550  25.1785630  73.2012590  67.8920530  25.6672730  72.4697490
  68.5265620  25.8510910  73.8319120  75.8781480  13.5802020  78.6598100
  76.1856460  13.0248910  77.9433600  74.9482180  13.7146480  78.4771090
  73.8718880  22.1715590  78.1777950  73.4675880  21.4592840  77.6823850
  73.9582000  21.8268830  79.0665990  74.3400580  25.8583150  80.3417160
  74.0428870  25.2528620  79.6624940  75.2900400  25.8960460  80.2306520
  72.5847500  18.9458800  81.9576990  73.1362090  19.0554140  81.1830240
  73.0991010  19.3196400  82.6732220  73.4319010  25.5964840  86.9924960
  72.5347540  25.8204810  87.2398360  73.4571880  25.7199780  86.0436360
  72.2590230  22.4678160  85.5682330  72.1198000  23.3400960  85.9369730
  71.3771590  22.1250970  85.4230270  74.0570580  28.4099860  87.7767480
  74.0286010  28.8142810  86.9095910  73.8935550  27.4810220  87.6139080
  70.5723510  21.0660570  75.6784600  70.4521110  21.7922660  75.0665870
  70.2624400  20.2963480  75.2012510  68.2108880  24.2375710  81.4853240
  68.2889300  24.3724480  80.5408960  68.8250560  23.5291600  81.6781360
  69.4556510  25.9375900  77.8959420  69.0484590  26.0790490  77.0413020
  70.3469520  25.6536060  77.6930630  73.7278170  30.1521680  76.0082090
  73.5520650  29.2357220  75.7949890  72.8733910  30.5108970  76.2479890
  68.2668400  25.2789880  84.0247700  68.4299440  24.8095240  83.2067070
  68.7320850  24.7713440  84.6896540  73.0387170  14.4095640  79.0608270
  72.5955320  15.1905180  78.7292790  73.5972160  14.7325530  79.7679210
  77.3256980  17.2764160  84.6643590  76.8636350  17.4847180  85.4763530
  76.9235090  16.4623510  84.3614260  76.1545990  14.0306340  73.9414100
  75.5300170  14.0266210  74.6667410  76.0676110  13.1637300  73.5450070
  75.0763070  14.9542970  80.9197870  75.3735400  15.8605800  80.8389890
  75.6248630  14.4661750  80.3057440  72.8301390  19.5329210  76.7889520
  72.6042310  19.3166380  77.6936140  72.0493920  19.9657670  76.4435490
  75.2700600  20.4314790  87.4549790  75.1744200  19.4909520  87.3050190
  76.1132580  20.6529860  87.0597860  70.4011140  16.8428460  85.6083570
  70.0074530  17.6903670  85.8156350  69.7129540  16.2054830  85.7992210
  67.7028190  14.7656920  79.6413650  67.4141240  15.3359780  80.3538630
  68.4473950  14.2861370  80.0044880  67.8898420  18.7077040  70.8516370
  67.8073090  19.6507800  70.9931360  67.5381480  18.5651950  69.9728720
  75.6896550  17.4416070  79.9186720  75.6932610  17.0006020  79.0691260
  76.5847670  17.7633400  80.0258540  71.5398930  17.3242560  78.8780930
  71.1998980  17.8017790  79.6347980  70.7776250  16.8707680  78.5182030
  75.7516700  18.4428150  72.9093480  75.8729520  18.4014630  73.8579300
  75.3665210  19.3052300  72.7540210  74.7638200  20.7529290  72.3076780
  74.1955100  20.3047540  71.6812690  75.4727200  21.1122070  71.7741930
  69.8407380  24.6541310  86.1843510  69.4562170  24.0134980  86.7826470
  70.1519570  25.3577430  86.7538240  75.9904520  21.5017850  81.6652130
  76.3574650  21.0276420  82.4113470  75.8009580  22.3759420  82.0060470
  68.8545010  16.2461540  77.7945600  68.5691930  15.8817210  78.6324220
  68.7923870  15.5142000  77.1808740  73.7803890  20.5426490  83.9836340
  73.4760960  21.4218470  84.2086700  74.7350350  20.6026280  84.0193780
  72.3085680  24.7487480  74.5803190  71.5347940  24.2085100  74.4201910
  73.0380310  24.2294090  74.2420950  72.3523080  24.4167860  78.2182000
  72.8701750  23.6136120  78.1638890  71.9007100  24.3547000  79.0598830
  77.2392580  25.6834140  73.4909300  77.5808280  26.4276370  72.9952620
  76.4105290  25.9965260  73.8534130  69.8367620  21.3829230  85.1307700
  69.4782560  22.0483080  85.7181040  69.5422180  20.5512780  85.5020320
  73.0380740  21.8413470  88.0147250  72.7380880  21.9870650  87.1175070
  73.8091980  21.2818760  87.9220640  76.2083270  25.7647670  76.2625220
  76.8954400  26.3116880  76.6432810  75.4215690  26.3088400  76.2974830
  68.3475670  21.3820490  71.7542300  69.2170520  21.6645290  72.0378220
  67.8565990  22.1956360  71.6391110  75.5110480  22.7693700  75.8750580
  75.9673260  23.5798950  76.1010770  75.1598690  22.4516840  76.7069070
  71.4122260  13.1131350  76.3473100  71.2836890  13.1049250  77.2958020
  70.5884280  13.4514440  75.9964110  68.7146920  30.5947870  72.3203930
  69.0744560  31.1937210  71.6661200  68.5739260  31.1407760  73.0938960
  68.4116190  14.8722470  85.8079800  67.6974710  15.0719390  86.4132410
  68.8311230  14.0962040  86.1794600  68.6988780  28.8602730  86.7946330
  68.8079900  27.9197470  86.6541720  68.0469340  29.1257480  86.1460060
  76.6901370  27.1318620  88.1944450  76.3698240  26.4127860  88.7390140
  76.0159730  27.8073690  88.2680510  74.7315540  27.9779070  73.1377600
  74.7225640  28.7108760  72.5222110  73.8113900  27.7310650  73.2304560
  70.3322180  23.1993960  73.8824360  69.7250130  23.9392860  73.8919660
  70.8071530  23.2893320  73.0562560  75.2401030  18.5987670  75.7826690
  74.5317180  19.0674010  76.2240300  75.5245510  17.9409680  76.4171880
  76.8656960  20.0184370  83.7819220  77.3642210  20.4930190  84.4471070
  77.0079910  19.0947890  83.9889250  76.3593250  30.5593630  76.4950460
  76.6134750  30.5215020  75.5729830  75.4105730  30.4326960  76.4878710
  73.4436050  16.9072750  73.1577400  74.2926580  17.3442900  73.0917590
  73.0767320  17.2193010  73.9849460  72.3427470  23.1605110  71.6312930
  73.1090740  23.0486470  72.1938360  72.4202160  22.4643080  70.9789700
  71.0374230  20.5930180  72.3145820  71.1177820  19.6457690  72.4263220
  71.9293980  20.9237060  72.4206480  71.8388940  30.7425570  79.4180360
  72.5751420  30.1941030  79.6888930  72.2229860  31.6081580  79.2786350
  68.7234420  26.8099140  75.2921870  67.7974200  27.0520280  75.2827280
  69.1890850  27.6373400  75.1706620  70.8447220  29.9271640  88.6065940
  71.6459950  30.2483690  89.0201340  70.3299040  29.5667220  89.3285850
  74.9491250  29.9155880  71.2405930  75.7419860  30.2044710  70.7887720
  74.4295600  29.4848050  70.5618410  68.5645030  22.4145100  87.5501990
  69.0684050  21.8352380  88.1218220  67.8252450  22.6985330  88.0878360
  75.4668650  25.1359290  71.1048280  75.3619290  24.5211640  71.8309660
  75.2992870  24.6125180  70.3211290  75.6182970  23.8216090  87.0837510
  74.8528640  24.3901090  86.9992180  75.7998930  23.5292300  86.1905740
  70.5968110  20.5574690  88.4452060  70.6373450  20.2588560  89.3537290
  71.4513610  20.9582300  88.2859580  74.3746500  23.1570240  73.6055570
  74.7962920  22.9910110  74.4486960  74.4997340  22.3470470  73.1110710
  72.5373920  19.1366790  86.4126550  72.0070380  18.6457740  85.7849890
  73.2061990  19.5650990  85.8784480  76.8874140  22.1807850  70.8532670
  77.4079800  21.4656870  70.4873820  77.5342540  22.8193720  71.1533180
  73.0246220  16.1029160  86.4923840  72.9303090  15.4849910  85.7674710
  72.4443610  16.8295450  86.2653750  75.7907660  14.6602400  83.5251230
  75.3424960  14.6826660  82.6796780  75.1572860  14.2621420  84.1221530
  76.1967210  23.5556730  84.1463670  76.6155320  24.3989460  83.9739910
  75.2775840  23.6928770  83.9170450  73.2705400  19.2303470  70.5513730
  73.0694460  18.3670830  70.9127070  73.0997450  19.1436830  69.6135330
  74.0474630  29.8609740  85.2621400  73.5095720  30.5855800  84.9430100
  74.3008590  29.3840080  84.4718740  75.2999880  17.8294260  86.7877330
  75.8899570  17.5210110  87.4755150  74.4820120  17.3574010  86.9437230
  72.0688200  16.3304090  70.5391610  72.3714100  16.3371520  69.6310760
  72.8082790  15.9801950  71.0359270  76.9036840  31.0960950  85.5208050
  76.8295540  31.9996090  85.8280420  76.0015680  30.7772850  85.4930120
  75.2873130  15.2738710  71.5247810  74.9395130  14.5962700  70.9450260
  75.4885900  14.8128220  72.3391200  71.0918330  25.6346510  71.3721410
  71.5293200  26.1776180  72.0278990  71.5766060  24.8093460  71.3817750
  68.3064130  28.4235540  78.8241670  68.6367140  27.5556600  78.5920310
  68.7355130  28.6294060  79.6546630  72.9026050  26.7544550  76.4843640
  72.6021590  26.6309520  77.3847550  72.7963540  25.8953140  76.0759370
  68.7954340  29.2906130  81.5623300  68.3585330  29.4706930  82.3947450
  69.3632020  30.0480750  81.4205020  68.6278770  21.8026360  77.9212180
  67.9727610  21.5338000  77.2771880  69.4656720  21.6930840  77.4714160
  69.6654700  22.1878930  82.4615520  70.0327740  22.1006330  83.3411540
  69.0965520  21.4245480  82.3622380  69.2170700  19.0988020  86.3673940
  68.3226750  19.0654780  86.7067650  69.7568250  19.2974810  87.1325190
  67.8416850  19.0125290  73.8637510  66.9380930  19.2755490  73.6889170
  68.3257470  19.2836460  73.0837470  70.3844060  18.0690830  71.7731890
  71.0935760  17.6474050  71.2879170  69.6684000  18.1366060  71.1415240
  70.0318220  14.1230160  70.8134540  70.7546350  14.6639100  71.1315760
  70.3042740  13.8493580  69.9376080  69.7210410  13.3736350  80.7157160
  70.3686600  12.8233730  80.2752320  70.1412250  13.6279500  81.5372970
  69.4742410  13.5292020  83.4582480  69.1257230  13.9855840  84.2240660
  69.1430110  12.6349150  83.5404910  71.0806780  26.7011620  87.6235670
  71.0376410  26.3304530  88.5050130  71.2117790  27.6389190  87.7637490
  74.7812810  28.2571210  83.2245390  74.5404170  28.5245770  82.3375910
  75.7215450  28.4276940  83.2796250  70.1463050  13.0568220  86.7333250
  70.6946040  12.8756270  85.9699360  70.2118360  12.2662330  87.2689560
  70.9194810  29.6473870  84.7433450  70.3255130  29.5158570  85.4823490
  70.9118650  28.8112010  84.2775550  70.5507040  27.0132250  83.6941490
  69.8241100  26.3937540  83.6267440  70.6116190  27.4072860  82.8239570
  74.1552140  29.2277250  80.4790900  74.6717160  28.6164610  79.9539160
  74.8049520  29.7306030  80.9701910  76.8947640  30.1185740  81.3059880
  77.1825450  29.8640040  80.4292890  77.4070860  29.5663100  81.8965450
  68.8337040  30.3306640  76.9038250  68.6659080  29.6977320  77.6020140
  67.9671550  30.5366040  76.5532440  69.4565060  14.1623420  74.4070110
  70.2144420  14.2752300  73.8334140  68.9942230  14.9992620  74.3613540
  75.9978870  16.2762690  77.3972420  75.1853380  15.9019580  77.0568300
  76.5020510  15.5207770  77.6993610  70.4399740  29.0239870  74.3488390
  69.9147360  29.4047900  73.6450350  70.3644320  29.6490640  75.0698100
  71.8290210  14.6887470  72.9472080  72.3582970  13.9017270  72.8180030
  72.4618530  15.3678660  73.1807610  74.0228050  14.4262610  76.0017470
  73.3930790  13.7249920  76.1687600  73.4833190  15.1866740  75.7850630
  74.1483610  13.7046590  88.4369960  73.8667880  14.2080190  87.6730780
  74.5303310  12.9068340  88.0712090  73.0392710  30.9722250  73.2237640
  73.7711530  30.6881530  72.6761530  73.2986380  30.7335530  74.1137020
  72.2007500  27.0886980  73.2283970  71.5716380  27.5572080  73.7769800
  72.3155330  26.2436200  73.6630160  71.8041090  23.2291470  62.1370200
  70.9725970  22.9740180  62.5366710  72.4122070  23.3002240  62.8728120
  71.7842350  27.2631560  62.3328220  72.0870390  26.3729300  62.1538440
  72.5285940  27.8201780  62.1050470  70.2133040  18.1893360  55.9212590
  69.3249740  18.5309330  55.8192470  70.4974230  17.9893680  55.0293420
  68.1766050  20.7899010  61.8052290  68.7482160  20.0221210  61.8055930
  68.1767590  21.0887770  60.8958900  69.4190920  16.1983370  63.5921220
  69.2393760  15.3009120  63.8723980  69.0171000  16.7455240  64.2668170
  72.3894430  16.7724860  56.9550970  72.4961180  17.6728590  57.2619730
  71.4786790  16.7242830  56.6645620  70.0377590  18.6943870  62.2003560
  70.7187700  18.9582240  62.8190960  69.7225640  17.8544740  62.5341570
  74.2302160  19.7411230  61.2876150  74.7380380  20.2392200  61.9281170
  74.7615400  18.9646430  61.1115510  72.5138260  14.3809790  65.5539570
  72.5156700  14.8982180  64.7485470  71.6842570  13.9039970  65.5309500
  73.7641110  24.0204970  63.7313070  73.4310490  24.6473890  64.3734140
  73.9407790  24.5466850  62.9514740  72.1953590  16.0919750  63.5610020
  72.5370400  16.9361800  63.2663890  71.2569400  16.2403490  63.6775360
  72.9760210  25.9885770  65.5462250  73.5934210  26.6636850  65.2646700
  72.1153330  26.3973750  65.4549750  68.2692550  25.1785630  54.4269100
  67.8920530  25.6672730  53.6954000  68.5265620  25.8510910  55.0575630
  75.8781480  13.5802020  59.8854610  76.1856460  13.0248910  59.1690110
  74.9482180  13.7146480  59.7027600  73.8718880  22.1715590  59.4034460
  73.4675880  21.4592840  58.9080360  73.9582000  21.8268830  60.2922500
  74.3400580  25.8583150  61.5673670  74.0428870  25.2528620  60.8881450
  75.2900400  25.8960460  61.4563030  72.5847500  18.9458800  63.1833500
  73.1362090  19.0554140  62.4086750  73.0991010  19.3196400  63.8988730
  73.4319010  25.5964840  68.2181470  72.5347540  25.8204810  68.4654870
  73.4571880  25.7199780  67.2692870  72.2590230  22.4678160  66.7938840
  72.1198000  23.3400960  67.1626240  71.3771590  22.1250970  66.6486780
  74.0570580  28.4099860  69.0023990  74.0286010  28.8142810  68.1352420
  73.8935550  27.4810220  68.8395590  70.5723510  21.0660570  56.9041110
  70.4521110  21.7922660  56.2922380  70.2624400  20.2963480  56.4269020
  68.2108880  24.2375710  62.7109750  68.2889300  24.3724480  61.7665470
  68.8250560  23.5291600  62.9037870  69.4556510  25.9375900  59.1215930
  69.0484590  26.0790490  58.2669530  70.3469520  25.6536060  58.9187140
  73.7278170  30.1521680  57.2338600  73.5520650  29.2357220  57.0206400
  72.8733910  30.5108970  57.4736400  68.2668400  25.2789880  65.2504210
  68.4299440  24.8095240  64.4323580  68.7320850  24.7713440  65.9153050
  73.0387170  14.4095640  60.2864780  72.5955320  15.1905180  59.9549300
  73.5972160  14.7325530  60.9935720  77.3256980  17.2764160  65.8900100
  76.8636350  17.4847180  66.7020040  76.9235090  16.4623510  65.5870770
  76.1545990  14.0306340  55.1670610  75.5300170  14.0266210  55.8923920
  76.0676110  13.1637300  54.7706580  75.0763070  14.9542970  62.1454380
  75.3735400  15.8605800  62.0646400  75.6248630  14.4661750  61.5313950
  72.8301390  19.5329210  58.0146030  72.6042310  19.3166380  58.9192650
  72.0493920  19.9657670  57.6692000  75.2700600  20.4314790  68.6806300
  75.1744200  19.4909520  68.5306700  76.1132580  20.6529860  68.2854370
  70.4011140  16.8428460  66.8340080  70.0074530  17.6903670  67.0412860
  69.7129540  16.2054830  67.0248720  67.7028190  14.7656920  60.8670160
  67.4141240  15.3359780  61.5795140  68.4473950  14.2861370  61.2301390
  67.8898420  18.7077040  52.0772880  67.8073090  19.6507800  52.2187870
  67.5381480  18.5651950  51.1985230  75.6896550  17.4416070  61.1443230
  75.6932610  17.0006020  60.2947770  76.5847670  17.7633400  61.2515050
  71.5398930  17.3242560  60.1037440  71.1998980  17.8017790  60.8604490
  70.7776250  16.8707680  59.7438540  75.7516700  18.4428150  54.1349990
  75.8729520  18.4014630  55.0835810  75.3665210  19.3052300  53.9796720
  74.7638200  20.7529290  53.5333290  74.1955100  20.3047540  52.9069200
  75.4727200  21.1122070  52.9998440  69.8407380  24.6541310  67.4100020
  69.4562170  24.0134980  68.0082980  70.1519570  25.3577430  67.9794750
  75.9904520  21.5017850  62.8908640  76.3574650  21.0276420  63.6369980
  75.8009580  22.3759420  63.2316980  68.8545010  16.2461540  59.0202110
  68.5691930  15.8817210  59.8580730  68.7923870  15.5142000  58.4065250
  73.7803890  20.5426490  65.2092850  73.4760960  21.4218470  65.4343210
  74.7350350  20.6026280  65.2450290  72.3085680  24.7487480  55.8059700
  71.5347940  24.2085100  55.6458420  73.0380310  24.2294090  55.4677460
  72.3523080  24.4167860  59.4438510  72.8701750  23.6136120  59.3895400
  71.9007100  24.3547000  60.2855340  77.2392580  25.6834140  54.7165810
  77.5808280  26.4276370  54.2209130  76.4105290  25.9965260  55.0790640
  69.8367620  21.3829230  66.3564210  69.4782560  22.0483080  66.9437550
  69.5422180  20.5512780  66.7276830  73.0380740  21.8413470  69.2403760
  72.7380880  21.9870650  68.3431580  73.8091980  21.2818760  69.1477150
  76.2083270  25.7647670  57.4881730  76.8954400  26.3116880  57.8689320
  75.4215690  26.3088400  57.5231340  68.3475670  21.3820490  52.9798810
  69.2170520  21.6645290  53.2634730  67.8565990  22.1956360  52.8647620
  75.5110480  22.7693700  57.1007090  75.9673260  23.5798950  57.3267280
  75.1598690  22.4516840  57.9325580  71.4122260  13.1131350  57.5729610
  71.2836890  13.1049250  58.5214530  70.5884280  13.4514440  57.2220620
  68.7146920  30.5947870  53.5460440  69.0744560  31.1937210  52.8917710
  68.5739260  31.1407760  54.3195470  68.4116190  14.8722470  67.0336310
  67.6974710  15.0719390  67.6388920  68.8311230  14.0962040  67.4051110
  68.6988780  28.8602730  68.0202840  68.8079900  27.9197470  67.8798230
  68.0469340  29.1257480  67.3716570  76.6901370  27.1318620  69.4200960
  76.3698240  26.4127860  69.9646650  76.0159730  27.8073690  69.4937020
  74.7315540  27.9779070  54.3634110  74.7225640  28.7108760  53.7478620
  73.8113900  27.7310650  54.4561070  70.3322180  23.1993960  55.1080870
  69.7250130  23.9392860  55.1176170  70.8071530  23.2893320  54.2819070
  75.2401030  18.5987670  57.0083200  74.5317180  19.0674010  57.4496810
  75.5245510  17.9409680  57.6428390  76.8656960  20.0184370  65.0075730
  77.3642210  20.4930190  65.6727580  77.0079910  19.0947890  65.2145760
  76.3593250  30.5593630  57.7206970  76.6134750  30.5215020  56.7986340
  75.4105730  30.4326960  57.7135220  73.4436050  16.9072750  54.3833910
  74.2926580  17.3442900  54.3174100  73.0767320  17.2193010  55.2105970
  72.3427470  23.1605110  52.8569440  73.1090740  23.0486470  53.4194870
  72.4202160  22.4643080  52.2046210  71.0374230  20.5930180  53.5402330
  71.1177820  19.6457690  53.6519730  71.9293980  20.9237060  53.6462990
  71.8388940  30.7425570  60.6436870  72.5751420  30.1941030  60.9145440
  72.2229860  31.6081580  60.5042860  70.8447220  29.9271640  69.8322450
  71.6459950  30.2483690  70.2457850  70.3299040  29.5667220  70.5542360
  74.9491250  29.9155880  52.4662440  75.7419860  30.2044710  52.0144230
  74.4295600  29.4848050  51.7874920  68.5645030  22.4145100  68.7758500
  69.0684050  21.8352380  69.3474730  67.8252450  22.6985330  69.3134870
  75.4668650  25.1359290  52.3304790  75.3619290  24.5211640  53.0566170
  75.2992870  24.6125180  51.5467800  75.6182970  23.8216090  68.3094020
  74.8528640  24.3901090  68.2248690  75.7998930  23.5292300  67.4162250
  70.5968110  20.5574690  69.6708570  70.6373450  20.2588560  70.5793800
  71.4513610  20.9582300  69.5116090  74.3746500  23.1570240  54.8312080
  74.7962920  22.9910110  55.6743470  74.4997340  22.3470470  54.3367220
  72.5373920  19.1366790  67.6383060  72.0070380  18.6457740  67.0106400
  73.2061990  19.5650990  67.1040990  76.8874140  22.1807850  52.0789180
  77.4079800  21.4656870  51.7130330  77.5342540  22.8193720  52.3789690
  73.0246220  16.1029160  67.7180350  72.9303090  15.4849910  66.9931220
  72.4443610  16.8295450  67.4910260  75.7907660  14.6602400  64.7507740
  75.3424960  14.6826660  63.9053290  75.1572860  14.2621420  65.3478040
  76.1967210  23.5556730  65.3720180  76.6155320  24.3989460  65.1996420
  75.2775840  23.6928770  65.1426960  73.2705400  19.2303470  51.7770240
  73.0694460  18.3670830  52.1383580  73.0997450  19.1436830  50.8391840
  74.0474630  29.8609740  66.4877910  73.5095720  30.5855800  66.1686610
  74.3008590  29.3840080  65.6975250  75.2999880  17.8294260  68.0133840
  75.8899570  17.5210110  68.7011660  74.4820120  17.3574010  68.1693740
  72.0688200  16.3304090  51.7648120  72.3714100  16.3371520  50.8567270
  72.8082790  15.9801950  52.2615780  76.9036840  31.0960950  66.7464560
  76.8295540  31.9996090  67.0536930  76.0015680  30.7772850  66.7186630
  75.2873130  15.2738710  52.7504320  74.9395130  14.5962700  52.1706770
  75.4885900  14.8128220  53.5647710  71.0918330  25.6346510  52.5977920
  71.5293200  26.1776180  53.2535500  71.5766060  24.8093460  52.6074260
  68.3064130  28.4235540  60.0498180  68.6367140  27.5556600  59.8176820
  68.7355130  28.6294060  60.8803140  72.9026050  26.7544550  57.7100150
  72.6021590  26.6309520  58.6104060  72.7963540  25.8953140  57.3015880
  68.7954340  29.2906130  62.7879810  68.3585330  29.4706930  63.6203960
  69.3632020  30.0480750  62.6461530  68.6278770  21.8026360  59.1468690
  67.9727610  21.5338000  58.5028390  69.4656720  21.6930840  58.6970670
  69.6654700  22.1878930  63.6872030  70.0327740  22.1006330  64.5668050
  69.0965520  21.4245480  63.5878890  69.2170700  19.0988020  67.5930450
  68.3226750  19.0654780  67.9324160  69.7568250  19.2974810  68.3581700
  67.8416850  19.0125290  55.0894020  66.9380930  19.2755490  54.9145680
  68.3257470  19.2836460  54.3093980  70.3844060  18.0690830  52.9988400
  71.0935760  17.6474050  52.5135680  69.6684000  18.1366060  52.3671750
  70.0318220  14.1230160  52.0391050  70.7546350  14.6639100  52.3572270
  70.3042740  13.8493580  51.1632590  69.7210410  13.3736350  61.9413670
  70.3686600  12.8233730  61.5008830  70.1412250  13.6279500  62.7629480
  69.4742410  13.5292020  64.6838990  69.1257230  13.9855840  65.4497170
  69.1430110  12.6349150  64.7661420  71.0806780  26.7011620  68.8492180
  71.0376410  26.3304530  69.7306640  71.2117790  27.6389190  68.9894000
  74.7812810  28.2571210  64.4501900  74.5404170  28.5245770  63.5632420
  75.7215450  28.4276940  64.5052760  70.1463050  13.0568220  67.9589760
  70.6946040  12.8756270  67.1955870  70.2118360  12.2662330  68.4946070
  70.9194810  29.6473870  65.9689960  70.3255130  29.5158570  66.7080000
  70.9118650  28.8112010  65.5032060  70.5507040  27.0132250  64.9198000
  69.8241100  26.3937540  64.8523950  70.6116190  27.4072860  64.0496080
  74.1552140  29.2277250  61.7047410  74.6717160  28.6164610  61.1795670
  74.8049520  29.7306030  62.1958420  76.8947640  30.1185740  62.5316390
  77.1825450  29.8640040  61.6549400  77.4070860  29.5663100  63.1221960
  68.8337040  30.3306640  58.1294760  68.6659080  29.6977320  58.8276650
  67.9671550  30.5366040  57.7788950  69.4565060  14.1623420  55.6326620
  70.2144420  14.2752300  55.0590650  68.9942230  14.9992620  55.5870050
  75.9978870  16.2762690  58.6228930  75.1853380  15.9019580  58.2824810
  76.5020510  15.5207770  58.9250120  70.4399740  29.0239870  55.5744900
  69.9147360  29.4047900  54.8706860  70.3644320  29.6490640  56.2954610
  71.8290210  14.6887470  54.1728590  72.3582970  13.9017270  54.0436540
  72.4618530  15.3678660  54.4064120  74.0228050  14.4262610  57.2273980
  73.3930790  13.7249920  57.3944110  73.4833190  15.1866740  57.0107140
  74.1483610  13.7046590  69.6626470  73.8667880  14.2080190  68.8987290
  74.5303310  12.9068340  69.2968600  73.0392710  30.9722250  54.4494150
  73.7711530  30.6881530  53.9018040  73.2986380  30.7335530  55.3393530
  72.2007500  27.0886980  54.4540480  71.5716380  27.5572080  55.0026310
  72.3155330  26.2436200  54.8886670  71.8041090  23.2291470  43.3626710
  70.9725970  22.9740180  43.7623220  72.4122070  23.3002240  44.0984630
  71.7842350  27.2631560  43.5584730  72.0870390  26.3729300  43.3794950
  72.5285940  27.8201780  43.3306980  70.2133040  18.1893360  37.1469100
  69.3249740  18.5309330  37.0448980  70.4974230  17.9893680  36.2549930
  68.1766050  20.7899010  43.0308800  68.7482160  20.0221210  43.0312440
  68.1767590  21.0887770  42.1215410  69.4190920  16.1983370  44.8177730
  69.2393760  15.3009120  45.0980490  69.0171000  16.7455240  45.4924680
  72.3894430  16.7724860  38.1807480  72.4961180  17.6728590  38.4876240
  71.4786790  16.7242830  37.8902130  70.0377590  18.6943870  43.4260070
  70.7187700  18.9582240  44.0447470  69.7225640  17.8544740  43.7598080
  74.2302160  19.7411230  42.5132660  74.7380380  20.2392200  43.1537680
  74.7615400  18.9646430  42.3372020  72.5138260  14.3809790  46.7796080
  72.5156700  14.8982180  45.9741980  71.6842570  13.9039970  46.7566010
  73.7641110  24.0204970  44.9569580  73.4310490  24.6473890  45.5990650
  73.9407790  24.5466850  44.1771250  72.1953590  16.0919750  44.7866530
  72.5370400  16.9361800  44.4920400  71.2569400  16.2403490  44.9031870
  72.9760210  25.9885770  46.7718760  73.5934210  26.6636850  46.4903210
  72.1153330  26.3973750  46.6806260  68.2692550  25.1785630  35.6525610
  67.8920530  25.6672730  34.9210510  68.5265620  25.8510910  36.2832140
  75.8781480  13.5802020  41.1111120  76.1856460  13.0248910  40.3946620
  74.9482180  13.7146480  40.9284110  73.8718880  22.1715590  40.6290970
  73.4675880  21.4592840  40.1336870  73.9582000  21.8268830  41.5179010
  74.3400580  25.8583150  42.7930180  74.0428870  25.2528620  42.1137960
  75.2900400  25.8960460  42.6819540  72.5847500  18.9458800  44.4090010
  73.1362090  19.0554140  43.6343260  73.0991010  19.3196400  45.1245240
  73.4319010  25.5964840  49.4437980  72.5347540  25.8204810  49.6911380
  73.4571880  25.7199780  48.4949380  72.2590230  22.4678160  48.0195350
  72.1198000  23.3400960  48.3882750  71.3771590  22.1250970  47.8743290
  74.0570580  28.4099860  50.2280500  74.0286010  28.8142810  49.3608930
  73.8935550  27.4810220  50.0652100  70.5723510  21.0660570  38.1297620
  70.4521110  21.7922660  37.5178890  70.2624400  20.2963480  37.6525530
  68.2108880  24.2375710  43.9366260  68.2889300  24.3724480  42.9921980
  68.8250560  23.5291600  44.1294380  69.4556510  25.9375900  40.3472440
  69.0484590  26.0790490  39.4926040  70.3469520  25.6536060  40.1443650
  73.7278170  30.1521680  38.4595110  73.5520650  29.2357220  38.2462910
  72.8733910  30.5108970  38.6992910  68.2668400  25.2789880  46.4760720
  68.4299440  24.8095240  45.6580090  68.7320850  24.7713440  47.1409560
  73.0387170  14.4095640  41.5121290  72.5955320  15.1905180  41.1805810
  73.5972160  14.7325530  42.2192230  77.3256980  17.2764160  47.1156610
  76.8636350  17.4847180  47.9276550  76.9235090  16.4623510  46.8127280
  76.1545990  14.0306340  36.3927120  75.5300170  14.0266210  37.1180430
  76.0676110  13.1637300  35.9963090  75.0763070  14.9542970  43.3710890
  75.3735400  15.8605800  43.2902910  75.6248630  14.4661750  42.7570460
  72.8301390  19.5329210  39.2402540  72.6042310  19.3166380  40.1449160
  72.0493920  19.9657670  38.8948510  75.2700600  20.4314790  49.9062810
  75.1744200  19.4909520  49.7563210  76.1132580  20.6529860  49.5110880
  70.4011140  16.8428460  48.0596590  70.0074530  17.6903670  48.2669370
  69.7129540  16.2054830  48.2505230  67.7028190  14.7656920  42.0926670
  67.4141240  15.3359780  42.8051650  68.4473950  14.2861370  42.4557900
  67.8898420  18.7077040  33.3029390  67.8073090  19.6507800  33.4444380
  67.5381480  18.5651950  32.4241740  75.6896550  17.4416070  42.3699740
  75.6932610  17.0006020  41.5204280  76.5847670  17.7633400  42.4771560
  71.5398930  17.3242560  41.3293950  71.1998980  17.8017790  42.0861000
  70.7776250  16.8707680  40.9695050  75.7516700  18.4428150  35.3606500
  75.8729520  18.4014630  36.3092320  75.3665210  19.3052300  35.2053230
  74.7638200  20.7529290  34.7589800  74.1955100  20.3047540  34.1325710
  75.4727200  21.1122070  34.2254950  69.8407380  24.6541310  48.6356530
  69.4562170  24.0134980  49.2339490  70.1519570  25.3577430  49.2051260
  75.9904520  21.5017850  44.1165150  76.3574650  21.0276420  44.8626490
  75.8009580  22.3759420  44.4573490  68.8545010  16.2461540  40.2458620
  68.5691930  15.8817210  41.0837240  68.7923870  15.5142000  39.6321760
  73.7803890  20.5426490  46.4349360  73.4760960  21.4218470  46.6599720
  74.7350350  20.6026280  46.4706800  72.3085680  24.7487480  37.0316210
  71.5347940  24.2085100  36.8714930  73.0380310  24.2294090  36.6933970
  72.3523080  24.4167860  40.6695020  72.8701750  23.6136120  40.6151910
  71.9007100  24.3547000  41.5111850  77.2392580  25.6834140  35.9422320
  77.5808280  26.4276370  35.4465640  76.4105290  25.9965260  36.3047150
  69.8367620  21.3829230  47.5820720  69.4782560  22.0483080  48.1694060
  69.5422180  20.5512780  47.9533340  73.0380740  21.8413470  50.4660270
  72.7380880  21.9870650  49.5688090  73.8091980  21.2818760  50.3733660
  76.2083270  25.7647670  38.7138240  76.8954400  26.3116880  39.0945830
  75.4215690  26.3088400  38.7487850  68.3475670  21.3820490  34.2055320
  69.2170520  21.6645290  34.4891240  67.8565990  22.1956360  34.0904130
  75.5110480  22.7693700  38.3263600  75.9673260  23.5798950  38.5523790
  75.1598690  22.4516840  39.1582090  71.4122260  13.1131350  38.7986120
  71.2836890  13.1049250  39.7471040  70.5884280  13.4514440  38.4477130
  68.7146920  30.5947870  34.7716950  69.0744560  31.1937210  34.1174220
  68.5739260  31.1407760  35.5451980  68.4116190  14.8722470  48.2592820
  67.6974710  15.0719390  48.8645430  68.8311230  14.0962040  48.6307620
  68.6988780  28.8602730  49.2459350  68.8079900  27.9197470  49.1054740
  68.0469340  29.1257480  48.5973080  76.6901370  27.1318620  50.6457470
  76.3698240  26.4127860  51.1903160  76.0159730  27.8073690  50.7193530
  74.7315540  27.9779070  35.5890620  74.7225640  28.7108760  34.9735130
  73.8113900  27.7310650  35.6817580  70.3322180  23.1993960  36.3337380
  69.7250130  23.9392860  36.3432680  70.8071530  23.2893320  35.5075580
  75.2401030  18.5987670  38.2339710  74.5317180  19.0674010  38.6753320
  75.5245510  17.9409680  38.8684900  76.8656960  20.0184370  46.2332240
  77.3642210  20.4930190  46.8984090  77.0079910  19.0947890  46.4402270
  76.3593250  30.5593630  38.9463480  76.6134750  30.5215020  38.0242850
  75.4105730  30.4326960  38.9391730  73.4436050  16.9072750  35.6090420
  74.2926580  17.3442900  35.5430610  73.0767320  17.2193010  36.4362480
  72.3427470  23.1605110  34.0825950  73.1090740  23.0486470  34.6451380
  72.4202160  22.4643080  33.4302720  71.0374230  20.5930180  34.7658840
  71.1177820  19.6457690  34.8776240  71.9293980  20.9237060  34.8719500
  71.8388940  30.7425570  41.8693380  72.5751420  30.1941030  42.1401950
  72.2229860  31.6081580  41.7299370  68.7234420  26.8099140  37.7434890
  67.7974200  27.0520280  37.7340300  69.1890850  27.6373400  37.6219640
  70.8447220  29.9271640  51.0578960  71.6459950  30.2483690  51.4714360
  70.3299040  29.5667220  51.7798870  74.9491250  29.9155880  33.6918950
  75.7419860  30.2044710  33.2400740  74.4295600  29.4848050  33.0131430
  68.5645030  22.4145100  50.0015010  69.0684050  21.8352380  50.5731240
  67.8252450  22.6985330  50.5391380  75.4668650  25.1359290  33.5561300
  75.3619290  24.5211640  34.2822680  75.2992870  24.6125180  32.7724310
  75.6182970  23.8216090  49.5350530  74.8528640  24.3901090  49.4505200
  75.7998930  23.5292300  48.6418760  70.5968110  20.5574690  50.8965080
  70.6373450  20.2588560  51.8050310  71.4513610  20.9582300  50.7372600
  74.3746500  23.1570240  36.0568590  74.7962920  22.9910110  36.8999980
  74.4997340  22.3470470  35.5623730  72.5373920  19.1366790  48.8639570
  72.0070380  18.6457740  48.2362910  73.2061990  19.5650990  48.3297500
  76.8874140  22.1807850  33.3045690  77.4079800  21.4656870  32.9386840
  77.5342540  22.8193720  33.6046200  73.0246220  16.1029160  48.9436860
  72.9303090  15.4849910  48.2187730  72.4443610  16.8295450  48.7166770
  75.7907660  14.6602400  45.9764250  75.3424960  14.6826660  45.1309800
  75.1572860  14.2621420  46.5734550  76.1967210  23.5556730  46.5976690
  76.6155320  24.3989460  46.4252930  75.2775840  23.6928770  46.3683470
  73.2705400  19.2303470  33.0026750  73.0694460  18.3670830  33.3640090
  73.0997450  19.1436830  32.0648350  74.0474630  29.8609740  47.7134420
  73.5095720  30.5855800  47.3943120  74.3008590  29.3840080  46.9231760
  75.2999880  17.8294260  49.2390350  75.8899570  17.5210110  49.9268170
  74.4820120  17.3574010  49.3950250  72.0688200  16.3304090  32.9904630
  72.3714100  16.3371520  32.0823780  72.8082790  15.9801950  33.4872290
  76.9036840  31.0960950  47.9721070  76.8295540  31.9996090  48.2793440
  76.0015680  30.7772850  47.9443140  75.2873130  15.2738710  33.9760830
  74.9395130  14.5962700  33.3963280  75.4885900  14.8128220  34.7904220
  71.0918330  25.6346510  33.8234430  71.5293200  26.1776180  34.4792010
  71.5766060  24.8093460  33.8330770  68.3064130  28.4235540  41.2754690
  68.6367140  27.5556600  41.0433330  68.7355130  28.6294060  42.1059650
  72.9026050  26.7544550  38.9356660  72.6021590  26.6309520  39.8360570
  72.7963540  25.8953140  38.5272390  68.7954340  29.2906130  44.0136320
  68.3585330  29.4706930  44.8460470  69.3632020  30.0480750  43.8718040
  68.6278770  21.8026360  40.3725200  67.9727610  21.5338000  39.7284900
  69.4656720  21.6930840  39.9227180  69.6654700  22.1878930  44.9128540
  70.0327740  22.1006330  45.7924560  69.0965520  21.4245480  44.8135400
  69.2170700  19.0988020  48.8186960  68.3226750  19.0654780  49.1580670
  69.7568250  19.2974810  49.5838210  67.8416850  19.0125290  36.3150530
  66.9380930  19.2755490  36.1402190  68.3257470  19.2836460  35.5350490
  70.3844060  18.0690830  34.2244910  71.0935760  17.6474050  33.7392190
  69.6684000  18.1366060  33.5928260  70.0318220  14.1230160  33.2647560
  70.7546350  14.6639100  33.5828780  70.3042740  13.8493580  32.3889100
  69.7210410  13.3736350  43.1670180  70.3686600  12.8233730  42.7265340
  70.1412250  13.6279500  43.9885990  69.4742410  13.5292020  45.9095500
  69.1257230  13.9855840  46.6753680  69.1430110  12.6349150  45.9917930
  71.0806780  26.7011620  50.0748690  71.0376410  26.3304530  50.9563150
  71.2117790  27.6389190  50.2150510  74.7812810  28.2571210  45.6758410
  74.5404170  28.5245770  44.7888930  75.7215450  28.4276940  45.7309270
  70.1463050  13.0568220  49.1846270  70.6946040  12.8756270  48.4212380
  70.2118360  12.2662330  49.7202580  70.9194810  29.6473870  47.1946470
  70.3255130  29.5158570  47.9336510  70.9118650  28.8112010  46.7288570
  70.5507040  27.0132250  46.1454510  69.8241100  26.3937540  46.0780460
  70.6116190  27.4072860  45.2752590  74.1552140  29.2277250  42.9303920
  74.6717160  28.6164610  42.4052180  74.8049520  29.7306030  43.4214930
  76.8947640  30.1185740  43.7572900  77.1825450  29.8640040  42.8805910
  77.4070860  29.5663100  44.3478470  68.8337040  30.3306640  39.3551270
  68.6659080  29.6977320  40.0533160  67.9671550  30.5366040  39.0045460
  69.4565060  14.1623420  36.8583130  70.2144420  14.2752300  36.2847160
  68.9942230  14.9992620  36.8126560  75.9978870  16.2762690  39.8485440
  75.1853380  15.9019580  39.5081320  76.5020510  15.5207770  40.1506630
  70.4399740  29.0239870  36.8001410  69.9147360  29.4047900  36.0963370
  70.3644320  29.6490640  37.5211120  71.8290210  14.6887470  35.3985100
  72.3582970  13.9017270  35.2693050  72.4618530  15.3678660  35.6320630
  74.0228050  14.4262610  38.4530490  73.3930790  13.7249920  38.6200620
  73.4833190  15.1866740  38.2363650  74.1483610  13.7046590  50.8882980
  73.8667880  14.2080190  50.1243800  74.5303310  12.9068340  50.5225110
  73.0392710  30.9722250  35.6750660  73.7711530  30.6881530  35.1274550
  73.2986380  30.7335530  36.5650040  72.2007500  27.0886980  35.6796990
  71.5716380  27.5572080  36.2282820  72.3155330  26.2436200  36.1143180
  71.8041090  23.2291470  24.5883220  70.9725970  22.9740180  24.9879730
  72.4122070  23.3002240  25.3241140  71.7842350  27.2631560  24.7841240
  72.0870390  26.3729300  24.6051460  72.5285940  27.8201780  24.5563490
  70.2133040  18.1893360  18.3725610  69.3249740  18.5309330  18.2705490
  70.4974230  17.9893680  17.4806440  68.1766050  20.7899010  24.2565310
  68.7482160  20.0221210  24.2568950  68.1767590  21.0887770  23.3471920
  69.4190920  16.1983370  26.0434240  69.2393760  15.3009120  26.3237000
  69.0171000  16.7455240  26.7181190  72.3894430  16.7724860  19.4063990
  72.4961180  17.6728590  19.7132750  71.4786790  16.7242830  19.1158640
  70.0377590  18.6943870  24.6516580  70.7187700  18.9582240  25.2703980
  69.7225640  17.8544740  24.9854590  74.2302160  19.7411230  23.7389170
  74.7380380  20.2392200  24.3794190  74.7615400  18.9646430  23.5628530
  72.5138260  14.3809790  28.0052590  72.5156700  14.8982180  27.1998490
  71.6842570  13.9039970  27.9822520  73.7641110  24.0204970  26.1826090
  73.4310490  24.6473890  26.8247160  73.9407790  24.5466850  25.4027760
  72.1953590  16.0919750  26.0123040  72.5370400  16.9361800  25.7176910
  71.2569400  16.2403490  26.1288380  72.9760210  25.9885770  27.9975270
  73.5934210  26.6636850  27.7159720  72.1153330  26.3973750  27.9062770
  68.2692550  25.1785630  16.8782120  67.8920530  25.6672730  16.1467020
  68.5265620  25.8510910  17.5088650  75.8781480  13.5802020  22.3367630
  76.1856460  13.0248910  21.6203130  74.9482180  13.7146480  22.1540620
  73.8718880  22.1715590  21.8547480  73.4675880  21.4592840  21.3593380
  73.9582000  21.8268830  22.7435520  74.3400580  25.8583150  24.0186690
  74.0428870  25.2528620  23.3394470  75.2900400  25.8960460  23.9076050
  72.5847500  18.9458800  25.6346520  73.1362090  19.0554140  24.8599770
  73.0991010  19.3196400  26.3501750  73.4319010  25.5964840  30.6694490
  72.5347540  25.8204810  30.9167890  73.4571880  25.7199780  29.7205890
  72.2590230  22.4678160  29.2451860  72.1198000  23.3400960  29.6139260
  71.3771590  22.1250970  29.0999800  74.0570580  28.4099860  31.4537010
  74.0286010  28.8142810  30.5865440  73.8935550  27.4810220  31.2908610
  70.5723510  21.0660570  19.3554130  70.4521110  21.7922660  18.7435400
  70.2624400  20.2963480  18.8782040  68.2108880  24.2375710  25.1622770
  68.2889300  24.3724480  24.2178490  68.8250560  23.5291600  25.3550890
  69.4556510  25.9375900  21.5728950  69.0484590  26.0790490  20.7182550
  70.3469520  25.6536060  21.3700160  73.7278170  30.1521680  19.6851620
  73.5520650  29.2357220  19.4719420  72.8733910  30.5108970  19.9249420
  68.2668400  25.2789880  27.7017230  68.4299440  24.8095240  26.8836600
  68.7320850  24.7713440  28.3666070  73.0387170  14.4095640  22.7377800
  72.5955320  15.1905180  22.4062320  73.5972160  14.7325530  23.4448740
  77.3256980  17.2764160  28.3413120  76.8636350  17.4847180  29.1533060
  76.9235090  16.4623510  28.0383790  76.1545990  14.0306340  17.6183630
  75.5300170  14.0266210  18.3436940  76.0676110  13.1637300  17.2219600
  75.0763070  14.9542970  24.5967400  75.3735400  15.8605800  24.5159420
  75.6248630  14.4661750  23.9826970  72.8301390  19.5329210  20.4659050
  72.6042310  19.3166380  21.3705670  72.0493920  19.9657670  20.1205020
  75.2700600  20.4314790  31.1319320  75.1744200  19.4909520  30.9819720
  76.1132580  20.6529860  30.7367390  70.4011140  16.8428460  29.2853100
  70.0074530  17.6903670  29.4925880  69.7129540  16.2054830  29.4761740
  67.7028190  14.7656920  23.3183180  67.4141240  15.3359780  24.0308160
  68.4473950  14.2861370  23.6814410  67.8898420  18.7077040  14.5285900
  67.8073090  19.6507800  14.6700890  67.5381480  18.5651950  13.6498250
  75.6896550  17.4416070  23.5956250  75.6932610  17.0006020  22.7460790
  76.5847670  17.7633400  23.7028070  71.5398930  17.3242560  22.5550460
  71.1998980  17.8017790  23.3117510  70.7776250  16.8707680  22.1951560
  75.7516700  18.4428150  16.5863010  75.8729520  18.4014630  17.5348830
  75.3665210  19.3052300  16.4309740  74.7638200  20.7529290  15.9846310
  74.1955100  20.3047540  15.3582220  75.4727200  21.1122070  15.4511460
  69.8407380  24.6541310  29.8613040  69.4562170  24.0134980  30.4596000
  70.1519570  25.3577430  30.4307770  75.9904520  21.5017850  25.3421660
  76.3574650  21.0276420  26.0883000  75.8009580  22.3759420  25.6830000
  68.8545010  16.2461540  21.4715130  68.5691930  15.8817210  22.3093750
  68.7923870  15.5142000  20.8578270  73.7803890  20.5426490  27.6605870
  73.4760960  21.4218470  27.8856230  74.7350350  20.6026280  27.6963310
  72.3085680  24.7487480  18.2572720  71.5347940  24.2085100  18.0971440
  73.0380310  24.2294090  17.9190480  72.3523080  24.4167860  21.8951530
  72.8701750  23.6136120  21.8408420  71.9007100  24.3547000  22.7368360
  77.2392580  25.6834140  17.1678830  77.5808280  26.4276370  16.6722150
  76.4105290  25.9965260  17.5303660  69.8367620  21.3829230  28.8077230
  69.4782560  22.0483080  29.3950570  69.5422180  20.5512780  29.1789850
  73.0380740  21.8413470  31.6916780  72.7380880  21.9870650  30.7944600
  73.8091980  21.2818760  31.5990170  76.2083270  25.7647670  19.9394750
  76.8954400  26.3116880  20.3202340  75.4215690  26.3088400  19.9744360
  68.3475670  21.3820490  15.4311830  69.2170520  21.6645290  15.7147750
  67.8565990  22.1956360  15.3160640  75.5110480  22.7693700  19.5520110
  75.9673260  23.5798950  19.7780300  75.1598690  22.4516840  20.3838600
  71.4122260  13.1131350  20.0242630  71.2836890  13.1049250  20.9727550
  70.5884280  13.4514440  19.6733640  68.7146920  30.5947870  15.9973460
  69.0744560  31.1937210  15.3430730  68.5739260  31.1407760  16.7708490
  68.4116190  14.8722470  29.4849330  67.6974710  15.0719390  30.0901940
  68.8311230  14.0962040  29.8564130  68.6988780  28.8602730  30.4715860
  68.8079900  27.9197470  30.3311250  68.0469340  29.1257480  29.8229590
  76.6901370  27.1318620  31.8713980  76.3698240  26.4127860  32.4159670
  76.0159730  27.8073690  31.9450040  74.7315540  27.9779070  16.8147130
  74.7225640  28.7108760  16.1991640  73.8113900  27.7310650  16.9074090
  70.3322180  23.1993960  17.5593890  69.7250130  23.9392860  17.5689190
  70.8071530  23.2893320  16.7332090  75.2401030  18.5987670  19.4596220
  74.5317180  19.0674010  19.9009830  75.5245510  17.9409680  20.0941410
  76.8656960  20.0184370  27.4588750  77.3642210  20.4930190  28.1240600
  77.0079910  19.0947890  27.6658780  76.3593250  30.5593630  20.1719990
  76.6134750  30.5215020  19.2499360  75.4105730  30.4326960  20.1648240
  73.4436050  16.9072750  16.8346930  74.2926580  17.3442900  16.7687120
  73.0767320  17.2193010  17.6618990  72.3427470  23.1605110  15.3082460
  73.1090740  23.0486470  15.8707890  72.4202160  22.4643080  14.6559230
  71.0374230  20.5930180  15.9915350  71.1177820  19.6457690  16.1032750
  71.9293980  20.9237060  16.0976010  71.8388940  30.7425570  23.0949890
  72.5751420  30.1941030  23.3658460  72.2229860  31.6081580  22.9555880
  68.7234420  26.8099140  18.9691400  67.7974200  27.0520280  18.9596810
  69.1890850  27.6373400  18.8476150  70.8447220  29.9271640  32.2835470
  71.6459950  30.2483690  32.6970870  70.3299040  29.5667220  33.0055380
  74.9491250  29.9155880  14.9175460  75.7419860  30.2044710  14.4657250
  74.4295600  29.4848050  14.2387940  68.5645030  22.4145100  31.2271520
  69.0684050  21.8352380  31.7987750  67.8252450  22.6985330  31.7647890
  75.4668650  25.1359290  14.7817810  75.3619290  24.5211640  15.5079190
  75.2992870  24.6125180  13.9980820  75.6182970  23.8216090  30.7607040
  74.8528640  24.3901090  30.6761710  75.7998930  23.5292300  29.8675270
  70.5968110  20.5574690  32.1221590  70.6373450  20.2588560  33.0306820
  71.4513610  20.9582300  31.9629110  74.3746500  23.1570240  17.2825100
  74.7962920  22.9910110  18.1256490  74.4997340  22.3470470  16.7880240
  72.5373920  19.1366790  30.0896080  72.0070380  18.6457740  29.4619420
  73.2061990  19.5650990  29.5554010  76.8874140  22.1807850  14.5302200
  77.4079800  21.4656870  14.1643350  77.5342540  22.8193720  14.8302710
  73.0246220  16.1029160  30.1693370  72.9303090  15.4849910  29.4444240
  72.4443610  16.8295450  29.9423280  75.7907660  14.6602400  27.2020760
  75.3424960  14.6826660  26.3566310  75.1572860  14.2621420  27.7991060
  76.1967210  23.5556730  27.8233200  76.6155320  24.3989460  27.6509440
  75.2775840  23.6928770  27.5939980  73.2705400  19.2303470  14.2283260
  73.0694460  18.3670830  14.5896600  73.0997450  19.1436830  13.2904860
  74.0474630  29.8609740  28.9390930  73.5095720  30.5855800  28.6199630
  74.3008590  29.3840080  28.1488270  75.2999880  17.8294260  30.4646860
  75.8899570  17.5210110  31.1524680  74.4820120  17.3574010  30.6206760
  72.0688200  16.3304090  14.2161140  72.3714100  16.3371520  13.3080290
  72.8082790  15.9801950  14.7128800  76.9036840  31.0960950  29.1977580
  76.8295540  31.9996090  29.5049950  76.0015680  30.7772850  29.1699650
  75.2873130  15.2738710  15.2017340  74.9395130  14.5962700  14.6219790
  75.4885900  14.8128220  16.0160730  71.0918330  25.6346510  15.0490940
  71.5293200  26.1776180  15.7048520  71.5766060  24.8093460  15.0587280
  68.3064130  28.4235540  22.5011200  68.6367140  27.5556600  22.2689840
  68.7355130  28.6294060  23.3316160  72.9026050  26.7544550  20.1613170
  72.6021590  26.6309520  21.0617080  72.7963540  25.8953140  19.7528900
  68.7954340  29.2906130  25.2392830  68.3585330  29.4706930  26.0716980
  69.3632020  30.0480750  25.0974550  68.6278770  21.8026360  21.5981710
  67.9727610  21.5338000  20.9541410  69.4656720  21.6930840  21.1483690
  69.6654700  22.1878930  26.1385050  70.0327740  22.1006330  27.0181070
  69.0965520  21.4245480  26.0391910  69.2170700  19.0988020  30.0443470
  68.3226750  19.0654780  30.3837180  69.7568250  19.2974810  30.8094720
  67.8416850  19.0125290  17.5407040  66.9380930  19.2755490  17.3658700
  68.3257470  19.2836460  16.7607000  70.3844060  18.0690830  15.4501420
  71.0935760  17.6474050  14.9648700  69.6684000  18.1366060  14.8184770
  70.0318220  14.1230160  14.4904070  70.7546350  14.6639100  14.8085290
  70.3042740  13.8493580  13.6145610  69.7210410  13.3736350  24.3926690
  70.3686600  12.8233730  23.9521850  70.1412250  13.6279500  25.2142500
  69.4742410  13.5292020  27.1352010  69.1257230  13.9855840  27.9010190
  69.1430110  12.6349150  27.2174440  71.0806780  26.7011620  31.3005200
  71.0376410  26.3304530  32.1819660  71.2117790  27.6389190  31.4407020
  74.7812810  28.2571210  26.9014920  74.5404170  28.5245770  26.0145440
  75.7215450  28.4276940  26.9565780  70.1463050  13.0568220  30.4102780
  70.6946040  12.8756270  29.6468890  70.2118360  12.2662330  30.9459090
  70.9194810  29.6473870  28.4202980  70.3255130  29.5158570  29.1593020
  70.9118650  28.8112010  27.9545080  70.5507040  27.0132250  27.3711020
  69.8241100  26.3937540  27.3036970  70.6116190  27.4072860  26.5009100
  74.1552140  29.2277250  24.1560430  74.6717160  28.6164610  23.6308690
  74.8049520  29.7306030  24.6471440  76.8947640  30.1185740  24.9829410
  77.1825450  29.8640040  24.1062420  77.4070860  29.5663100  25.5734980
  68.8337040  30.3306640  20.5807780  68.6659080  29.6977320  21.2789670
  67.9671550  30.5366040  20.2301970  69.4565060  14.1623420  18.0839640
  70.2144420  14.2752300  17.5103670  68.9942230  14.9992620  18.0383070
  75.9978870  16.2762690  21.0741950  75.1853380  15.9019580  20.7337830
  76.5020510  15.5207770  21.3763140  70.4399740  29.0239870  18.0257920
  69.9147360  29.4047900  17.3219880  70.3644320  29.6490640  18.7467630
  71.8290210  14.6887470  16.6241610  72.3582970  13.9017270  16.4949560
  72.4618530  15.3678660  16.8577140  74.0228050  14.4262610  19.6787000
  73.3930790  13.7249920  19.8457130  73.4833190  15.1866740  19.4620160
  74.1483610  13.7046590  32.1139490  73.8667880  14.2080190  31.3500310
  74.5303310  12.9068340  31.7481620  73.0392710  30.9722250  16.9007170
  73.7711530  30.6881530  16.3531060  73.2986380  30.7335530  17.7906550
  72.2007500  27.0886980  16.9053500  71.5716380  27.5572080  17.4539330
  72.3155330  26.2436200  17.3399690  71.8041090  23.2291470   5.8139730
  70.9725970  22.9740180   6.2136240  72.4122070  23.3002240   6.5497650
  71.7842350  27.2631560   6.0097750  72.0870390  26.3729300   5.8307970
  72.5285940  27.8201780   5.7820000  68.1766050  20.7899010   5.4821820
  68.7482160  20.0221210   5.4825460  68.1767590  21.0887770   4.5728430
  69.4190920  16.1983370   7.2690750  69.2393760  15.3009120   7.5493510
  69.0171000  16.7455240   7.9437700  70.0377590  18.6943870   5.8773090
  70.7187700  18.9582240   6.4960490  69.7225640  17.8544740   6.2111100
  74.2302160  19.7411230   4.9645680  74.7380380  20.2392200   5.6050700
  74.7615400  18.9646430   4.7885040  72.5138260  14.3809790   9.2309100
  72.5156700  14.8982180   8.4255000  71.6842570  13.9039970   9.2079030
  73.7641110  24.0204970   7.4082600  73.4310490  24.6473890   8.0503670
  73.9407790  24.5466850   6.6284270  72.1953590  16.0919750   7.2379550
  72.5370400  16.9361800   6.9433420  71.2569400  16.2403490   7.3544890
  72.9760210  25.9885770   9.2231780  73.5934210  26.6636850   8.9416230
  72.1153330  26.3973750   9.1319280  75.8781480  13.5802020   3.5624140
  76.1856460  13.0248910   2.8459640  74.9482180  13.7146480   3.3797130
  73.8718880  22.1715590   3.0803990  73.4675880  21.4592840   2.5849890
  73.9582000  21.8268830   3.9692030  74.3400580  25.8583150   5.2443200
  74.0428870  25.2528620   4.5650980  75.2900400  25.8960460   5.1332560
  72.5847500  18.9458800   6.8603030  73.1362090  19.0554140   6.0856280
  73.0991010  19.3196400   7.5758260  73.4319010  25.5964840  11.8951000
  72.5347540  25.8204810  12.1424400  73.4571880  25.7199780  10.9462400
  72.2590230  22.4678160  10.4708370  72.1198000  23.3400960  10.8395770
  71.3771590  22.1250970  10.3256310  74.0570580  28.4099860  12.6793520
  74.0286010  28.8142810  11.8121950  73.8935550  27.4810220  12.5165120
  68.2108880  24.2375710   6.3879280  68.2889300  24.3724480   5.4435000
  68.8250560  23.5291600   6.5807400  69.4556510  25.9375900   2.7985460
  69.0484590  26.0790490   1.9439060  70.3469520  25.6536060   2.5956670
  68.2668400  25.2789880   8.9273740  68.4299440  24.8095240   8.1093110
  68.7320850  24.7713440   9.5922580  73.0387170  14.4095640   3.9634310
  72.5955320  15.1905180   3.6318830  73.5972160  14.7325530   4.6705250
  77.3256980  17.2764160   9.5669630  76.8636350  17.4847180  10.3789570
  76.9235090  16.4623510   9.2640300  75.0763070  14.9542970   5.8223910
  75.3735400  15.8605800   5.7415930  75.6248630  14.4661750   5.2083480
  75.2700600  20.4314790  12.3575830  75.1744200  19.4909520  12.2076230
  76.1132580  20.6529860  11.9623900  70.4011140  16.8428460  10.5109610
  70.0074530  17.6903670  10.7182390  69.7129540  16.2054830  10.7018250
  67.7028190  14.7656920   4.5439690  67.4141240  15.3359780   5.2564670
  68.4473950  14.2861370   4.9070920  75.6896550  17.4416070   4.8212760
  75.6932610  17.0006020   3.9717300  76.5847670  17.7633400   4.9284580
  71.5398930  17.3242560   3.7806970  71.1998980  17.8017790   4.5374020
  70.7776250  16.8707680   3.4208070  69.8407380  24.6541310  11.0869550
  69.4562170  24.0134980  11.6852510  70.1519570  25.3577430  11.6564280
  75.9904520  21.5017850   6.5678170  76.3574650  21.0276420   7.3139510
  75.8009580  22.3759420   6.9086510  68.8545010  16.2461540   2.6971640
  68.5691930  15.8817210   3.5350260  68.7923870  15.5142000   2.0834780
  73.7803890  20.5426490   8.8862380  73.4760960  21.4218470   9.1112740
  74.7350350  20.6026280   8.9219820  72.3523080  24.4167860   3.1208040
  72.8701750  23.6136120   3.0664930  71.9007100  24.3547000   3.9624870
  69.8367620  21.3829230  10.0333740  69.4782560  22.0483080  10.6207080
  69.5422180  20.5512780  10.4046360  73.0380740  21.8413470  12.9173290
  72.7380880  21.9870650  12.0201110  73.8091980  21.2818760  12.8246680
  68.4116190  14.8722470  10.7105840  67.6974710  15.0719390  11.3158450
  68.8311230  14.0962040  11.0820640  68.6988780  28.8602730  11.6972370
  68.8079900  27.9197470  11.5567760  68.0469340  29.1257480  11.0486100
  76.6901370  27.1318620  13.0970490  76.3698240  26.4127860  13.6416180
  76.0159730  27.8073690  13.1706550  76.8656960  20.0184370   8.6845260
  77.3642210  20.4930190   9.3497110  77.0079910  19.0947890   8.8915290
  71.8388940  30.7425570   4.3206400  72.5751420  30.1941030   4.5914970
  72.2229860  31.6081580   4.1812390  70.8447220  29.9271640  13.5091980
  71.6459950  30.2483690  13.9227380  70.3299040  29.5667220  14.2311890
  68.5645030  22.4145100  12.4528030  69.0684050  21.8352380  13.0244260
  67.8252450  22.6985330  12.9904400  75.6182970  23.8216090  11.9863550
  74.8528640  24.3901090  11.9018220  75.7998930  23.5292300  11.0931780
  70.5968110  20.5574690  13.3478100  70.6373450  20.2588560  14.2563330
  71.4513610  20.9582300  13.1885620  72.5373920  19.1366790  11.3152590
  72.0070380  18.6457740  10.6875930  73.2061990  19.5650990  10.7810520
  73.0246220  16.1029160  11.3949880  72.9303090  15.4849910  10.6700750
  72.4443610  16.8295450  11.1679790  75.7907660  14.6602400   8.4277270
  75.3424960  14.6826660   7.5822820  75.1572860  14.2621420   9.0247570
  76.1967210  23.5556730   9.0489710  76.6155320  24.3989460   8.8765950
  75.2775840  23.6928770   8.8196490  74.0474630  29.8609740  10.1647440
  73.5095720  30.5855800   9.8456140  74.3008590  29.3840080   9.3744780
  75.2999880  17.8294260  11.6903370  75.8899570  17.5210110  12.3781190
  74.4820120  17.3574010  11.8463270  76.9036840  31.0960950  10.4234090
  76.8295540  31.9996090  10.7306460  76.0015680  30.7772850  10.3956160
  68.3064130  28.4235540   3.7267710  68.6367140  27.5556600   3.4946350
  68.7355130  28.6294060   4.5572670  68.7954340  29.2906130   6.4649340
  68.3585330  29.4706930   7.2973490  69.3632020  30.0480750   6.3231060
  68.6278770  21.8026360   2.8238220  67.9727610  21.5338000   2.1797920
  69.4656720  21.6930840   2.3740200  69.6654700  22.1878930   7.3641560
  70.0327740  22.1006330   8.2437580  69.0965520  21.4245480   7.2648420
  69.2170700  19.0988020  11.2699980  68.3226750  19.0654780  11.6093690
  69.7568250  19.2974810  12.0351230  69.7210410  13.3736350   5.6183200
  70.3686600  12.8233730   5.1778360  70.1412250  13.6279500   6.4399010
  69.4742410  13.5292020   8.3608520  69.1257230  13.9855840   9.1266700
  69.1430110  12.6349150   8.4430950  71.0806780  26.7011620  12.5261710
  71.0376410  26.3304530  13.4076170  71.2117790  27.6389190  12.6663530
  74.7812810  28.2571210   8.1271430  74.5404170  28.5245770   7.2401950
  75.7215450  28.4276940   8.1822290  70.1463050  13.0568220  11.6359290
  70.6946040  12.8756270  10.8725400  70.2118360  12.2662330  12.1715600
  70.9194810  29.6473870   9.6459490  70.3255130  29.5158570  10.3849530
  70.9118650  28.8112010   9.1801590  70.5507040  27.0132250   8.5967530
  69.8241100  26.3937540   8.5293480  70.6116190  27.4072860   7.7265610
  74.1552140  29.2277250   5.3816940  74.6717160  28.6164610   4.8565200
  74.8049520  29.7306030   5.8727950  76.8947640  30.1185740   6.2085920
  77.1825450  29.8640040   5.3318930  77.4070860  29.5663100   6.7991490
  75.9978870  16.2762690   2.2998460  75.1853380  15.9019580   1.9594340
  76.5020510  15.5207770   2.6019650  74.1483610  13.7046590  13.3396000
  73.8667880  14.2080190  12.5756820  74.5303310  12.9068340  12.9738130
  71.8041090   4.4547980  99.6857180  70.9725970   4.1996690 100.0853690
  72.4122070   4.5258750 100.4215100  71.7842350   8.4888070  99.8815200
  72.0870390   7.5985810  99.7025420  72.5285940   9.0458290  99.6537450
  68.1766050   2.0155520  99.3539270  68.7482160   1.2477720  99.3542910
  68.1767590   2.3144280  98.4445880  68.2692550   6.4042140  91.9756080
  67.8920530   6.8929240  91.2440980  68.5265620   7.0767420  92.6062610
  73.8718880   3.3972100  96.9521440  73.4675880   2.6849350  96.4567340
  73.9582000   3.0525340  97.8409480  74.3400580   7.0839660  99.1160650
  74.0428870   6.4785130  98.4368430  75.2900400   7.1216970  99.0050010
  70.5723510   2.2917080  94.4528090  70.4521110   3.0179170  93.8409360
  70.2624400   1.5219990  93.9756000  68.2108880   5.4632220 100.2596730
  68.2889300   5.5980990  99.3152450  68.8250560   4.7548110 100.4524850
  69.4556510   7.1632410  96.6702910  69.0484590   7.3047000  95.8156510
  70.3469520   6.8792570  96.4674120  73.7278170  11.3778190  94.7825580
  73.5520650  10.4613730  94.5693380  72.8733910  11.7365480  95.0223380
  74.7638200   1.9785800  91.0820270  74.1955100   1.5304050  90.4556180
  75.4727200   2.3378580  90.5485420  75.9904520   2.7274360 100.4395620
  76.3574650   2.2532930 101.1856960  75.8009580   3.6015930 100.7803960
  72.3085680   5.9743990  93.3546680  71.5347940   5.4341610  93.1945400
  73.0380310   5.4550600  93.0164440  72.3523080   5.6424370  96.9925490
  72.8701750   4.8392630  96.9382380  71.9007100   5.5803510  97.8342320
  77.2392580   6.9090650  92.2652790  77.5808280   7.6532880  91.7696110
  76.4105290   7.2221770  92.6277620  76.2083270   6.9904180  95.0368710
  76.8954400   7.5373390  95.4176300  75.4215690   7.5344910  95.0718320
  68.3475670   2.6077000  90.5285790  69.2170520   2.8901800  90.8121710
  67.8565990   3.4212870  90.4134600  75.5110480   3.9950210  94.6494070
  75.9673260   4.8055460  94.8754260  75.1598690   3.6773350  95.4812560
  68.7146920  11.8204380  91.0947420  69.0744560  12.4193720  90.4404690
  68.5739260  12.3664270  91.8682450  74.7315540   9.2035580  91.9121090
  74.7225640   9.9365270  91.2965600  73.8113900   8.9567160  92.0048050
  70.3322180   4.4250470  92.6567850  69.7250130   5.1649370  92.6663150
  70.8071530   4.5149830  91.8306050  76.3593250  11.7850140  95.2693950
  76.6134750  11.7471530  94.3473320  75.4105730  11.6583470  95.2622200
  72.3427470   4.3861620  90.4056420  73.1090740   4.2742980  90.9681850
  72.4202160   3.6899590  89.7533190  71.8388940  11.9682080  98.1923850
  72.5751420  11.4197540  98.4632420  72.2229860  12.8338090  98.0529840
  68.7234420   8.0355650  94.0665360  67.7974200   8.2776790  94.0570770
  69.1890850   8.8629910  93.9450110  74.9491250  11.1412390  90.0149420
  75.7419860  11.4301220  89.5631210  74.4295600  10.7104560  89.3361900
  75.4668650   6.3615800  89.8791770  75.3619290   5.7468150  90.6053150
  75.2992870   5.8381690  89.0954780  74.3746500   4.3826750  92.3799060
  74.7962920   4.2166620  93.2230450  74.4997340   3.5726980  91.8854200
  76.8874140   3.4064360  89.6276160  77.4079800   2.6913380  89.2617310
  77.5342540   4.0450230  89.9276670  71.0918330   6.8603020  90.1464900
  71.5293200   7.4032690  90.8022480  71.5766060   6.0349970  90.1561240
  68.3064130   9.6492050  97.5985160  68.6367140   8.7813110  97.3663800
  68.7355130   9.8550570  98.4290120  72.9026050   7.9801060  95.2587130
  72.6021590   7.8566030  96.1591040  72.7963540   7.1209650  94.8502860
  68.7954340  10.5162640 100.3366790  68.3585330  10.6963440 101.1690940
  69.3632020  11.2737260 100.1948510  68.6278770   3.0282870  96.6955670
  67.9727610   2.7594510  96.0515370  69.4656720   2.9187350  96.2457650
  74.1552140  10.4533760  99.2534390  74.6717160   9.8421120  98.7282650
  74.8049520  10.9562540  99.7445400  76.8947640  11.3442250 100.0803370
  77.1825450  11.0896550  99.2036380  77.4070860  10.7919610 100.6708940
  68.8337040  11.5563150  95.6781740  68.6659080  10.9233830  96.3763630
  67.9671550  11.7622550  95.3275930  70.4399740  10.2496380  93.1231880
  69.9147360  10.6304410  92.4193840  70.3644320  10.8747150  93.8441590
  73.0392710  12.1978760  91.9981130  73.7711530  11.9138040  91.4505020
  73.2986380  11.9592040  92.8880510  72.2007500   8.3143490  92.0027460
  71.5716380   8.7828590  92.5513290  72.3155330   7.4692710  92.4373650
  71.8041090   4.4547980  80.9113690  70.9725970   4.1996690  81.3110200
  72.4122070   4.5258750  81.6471610  71.7842350   8.4888070  81.1071710
  72.0870390   7.5985810  80.9281930  72.5285940   9.0458290  80.8793960
  68.1766050   2.0155520  80.5795780  68.7482160   1.2477720  80.5799420
  68.1767590   2.3144280  79.6702390  73.7641110   5.2461480  82.5056560
  73.4310490   5.8730400  83.1477630  73.9407790   5.7723360  81.7258230
  72.9760210   7.2142280  84.3205740  73.5934210   7.8893360  84.0390190
  72.1153330   7.6230260  84.2293240  68.2692550   6.4042140  73.2012590
  67.8920530   6.8929240  72.4697490  68.5265620   7.0767420  73.8319120
  73.8718880   3.3972100  78.1777950  73.4675880   2.6849350  77.6823850
  73.9582000   3.0525340  79.0665990  74.3400580   7.0839660  80.3417160
  74.0428870   6.4785130  79.6624940  75.2900400   7.1216970  80.2306520
  73.4319010   6.8221350  86.9924960  72.5347540   7.0461320  87.2398360
  73.4571880   6.9456290  86.0436360  72.2590230   3.6934670  85.5682330
  72.1198000   4.5657470  85.9369730  71.3771590   3.3507480  85.4230270
  74.0570580   9.6356370  87.7767480  74.0286010  10.0399320  86.9095910
  73.8935550   8.7066730  87.6139080  70.5723510   2.2917080  75.6784600
  70.4521110   3.0179170  75.0665870  70.2624400   1.5219990  75.2012510
  68.2108880   5.4632220  81.4853240  68.2889300   5.5980990  80.5408960
  68.8250560   4.7548110  81.6781360  69.4556510   7.1632410  77.8959420
  69.0484590   7.3047000  77.0413020  70.3469520   6.8792570  77.6930630
  73.7278170  11.3778190  76.0082090  73.5520650  10.4613730  75.7949890
  72.8733910  11.7365480  76.2479890  68.2668400   6.5046390  84.0247700
  68.4299440   6.0351750  83.2067070  68.7320850   5.9969950  84.6896540
  74.7638200   1.9785800  72.3076780  74.1955100   1.5304050  71.6812690
  75.4727200   2.3378580  71.7741930  69.8407380   5.8797820  86.1843510
  69.4562170   5.2391490  86.7826470  70.1519570   6.5833940  86.7538240
  75.9904520   2.7274360  81.6652130  76.3574650   2.2532930  82.4113470
  75.8009580   3.6015930  82.0060470  73.7803890   1.7683000  83.9836340
  73.4760960   2.6474980  84.2086700  74.7350350   1.8282790  84.0193780
  72.3085680   5.9743990  74.5803190  71.5347940   5.4341610  74.4201910
  73.0380310   5.4550600  74.2420950  72.3523080   5.6424370  78.2182000
  72.8701750   4.8392630  78.1638890  71.9007100   5.5803510  79.0598830
  77.2392580   6.9090650  73.4909300  77.5808280   7.6532880  72.9952620
  76.4105290   7.2221770  73.8534130  69.8367620   2.6085740  85.1307700
  69.4782560   3.2739590  85.7181040  69.5422180   1.7769290  85.5020320
  73.0380740   3.0669980  88.0147250  72.7380880   3.2127160  87.1175070
  73.8091980   2.5075270  87.9220640  76.2083270   6.9904180  76.2625220
  76.8954400   7.5373390  76.6432810  75.4215690   7.5344910  76.2974830
  68.3475670   2.6077000  71.7542300  69.2170520   2.8901800  72.0378220
  67.8565990   3.4212870  71.6391110  75.5110480   3.9950210  75.8750580
  75.9673260   4.8055460  76.1010770  75.1598690   3.6773350  76.7069070
  68.7146920  11.8204380  72.3203930  69.0744560  12.4193720  71.6661200
  68.5739260  12.3664270  73.0938960  68.6988780  10.0859240  86.7946330
  68.8079900   9.1453980  86.6541720  68.0469340  10.3513990  86.1460060
  76.6901370   8.3575130  88.1944450  76.3698240   7.6384370  88.7390140
  76.0159730   9.0330200  88.2680510  74.7315540   9.2035580  73.1377600
  74.7225640   9.9365270  72.5222110  73.8113900   8.9567160  73.2304560
  70.3322180   4.4250470  73.8824360  69.7250130   5.1649370  73.8919660
  70.8071530   4.5149830  73.0562560  76.3593250  11.7850140  76.4950460
  76.6134750  11.7471530  75.5729830  75.4105730  11.6583470  76.4878710
  72.3427470   4.3861620  71.6312930  73.1090740   4.2742980  72.1938360
  72.4202160   3.6899590  70.9789700  71.8388940  11.9682080  79.4180360
  72.5751420  11.4197540  79.6888930  72.2229860  12.8338090  79.2786350
  68.7234420   8.0355650  75.2921870  67.7974200   8.2776790  75.2827280
  69.1890850   8.8629910  75.1706620  70.8447220  11.1528150  88.6065940
  71.6459950  11.4740200  89.0201340  70.3299040  10.7923730  89.3285850
  74.9491250  11.1412390  71.2405930  75.7419860  11.4301220  70.7887720
  74.4295600  10.7104560  70.5618410  68.5645030   3.6401610  87.5501990
  69.0684050   3.0608890  88.1218220  67.8252450   3.9241840  88.0878360
  75.4668650   6.3615800  71.1048280  75.3619290   5.7468150  71.8309660
  75.2992870   5.8381690  70.3211290  75.6182970   5.0472600  87.0837510
  74.8528640   5.6157600  86.9992180  75.7998930   4.7548810  86.1905740
  70.5968110   1.7831200  88.4452060  70.6373450   1.4845070  89.3537290
  71.4513610   2.1838810  88.2859580  74.3746500   4.3826750  73.6055570
  74.7962920   4.2166620  74.4486960  74.4997340   3.5726980  73.1110710
  76.8874140   3.4064360  70.8532670  77.4079800   2.6913380  70.4873820
  77.5342540   4.0450230  71.1533180  76.1967210   4.7813240  84.1463670
  76.6155320   5.6245970  83.9739910  75.2775840   4.9185280  83.9170450
  74.0474630  11.0866250  85.2621400  73.5095720  11.8112310  84.9430100
  74.3008590  10.6096590  84.4718740  76.9036840  12.3217460  85.5208050
  76.8295540  13.2252600  85.8280420  76.0015680  12.0029360  85.4930120
  71.0918330   6.8603020  71.3721410  71.5293200   7.4032690  72.0278990
  71.5766060   6.0349970  71.3817750  68.3064130   9.6492050  78.8241670
  68.6367140   8.7813110  78.5920310  68.7355130   9.8550570  79.6546630
  72.9026050   7.9801060  76.4843640  72.6021590   7.8566030  77.3847550
  72.7963540   7.1209650  76.0759370  68.7954340  10.5162640  81.5623300
  68.3585330  10.6963440  82.3947450  69.3632020  11.2737260  81.4205020
  68.6278770   3.0282870  77.9212180  67.9727610   2.7594510  77.2771880
  69.4656720   2.9187350  77.4714160  69.6654700   3.4135440  82.4615520
  70.0327740   3.3262840  83.3411540  69.0965520   2.6501990  82.3622380
  71.0806780   7.9268130  87.6235670  71.0376410   7.5561040  88.5050130
  71.2117790   8.8645700  87.7637490  74.7812810   9.4827720  83.2245390
  74.5404170   9.7502280  82.3375910  75.7215450   9.6533450  83.2796250
  70.9194810  10.8730380  84.7433450  70.3255130  10.7415080  85.4823490
  70.9118650  10.0368520  84.2775550  70.5507040   8.2388760  83.6941490
  69.8241100   7.6194050  83.6267440  70.6116190   8.6329370  82.8239570
  74.1552140  10.4533760  80.4790900  74.6717160   9.8421120  79.9539160
  74.8049520  10.9562540  80.9701910  76.8947640  11.3442250  81.3059880
  77.1825450  11.0896550  80.4292890  77.4070860  10.7919610  81.8965450
  68.8337040  11.5563150  76.9038250  68.6659080  10.9233830  77.6020140
  67.9671550  11.7622550  76.5532440  70.4399740  10.2496380  74.3488390
  69.9147360  10.6304410  73.6450350  70.3644320  10.8747150  75.0698100
  73.0392710  12.1978760  73.2237640  73.7711530  11.9138040  72.6761530
  73.2986380  11.9592040  74.1137020  72.2007500   8.3143490  73.2283970
  71.5716380   8.7828590  73.7769800  72.3155330   7.4692710  73.6630160
  71.8041090   4.4547980  62.1370200  70.9725970   4.1996690  62.5366710
  72.4122070   4.5258750  62.8728120  71.7842350   8.4888070  62.3328220
  72.0870390   7.5985810  62.1538440  72.5285940   9.0458290  62.1050470
  68.1766050   2.0155520  61.8052290  68.7482160   1.2477720  61.8055930
  68.1767590   2.3144280  60.8958900  73.7641110   5.2461480  63.7313070
  73.4310490   5.8730400  64.3734140  73.9407790   5.7723360  62.9514740
  72.9760210   7.2142280  65.5462250  73.5934210   7.8893360  65.2646700
  72.1153330   7.6230260  65.4549750  68.2692550   6.4042140  54.4269100
  67.8920530   6.8929240  53.6954000  68.5265620   7.0767420  55.0575630
  73.8718880   3.3972100  59.4034460  73.4675880   2.6849350  58.9080360
  73.9582000   3.0525340  60.2922500  74.3400580   7.0839660  61.5673670
  74.0428870   6.4785130  60.8881450  75.2900400   7.1216970  61.4563030
  73.4319010   6.8221350  68.2181470  72.5347540   7.0461320  68.4654870
  73.4571880   6.9456290  67.2692870  72.2590230   3.6934670  66.7938840
  72.1198000   4.5657470  67.1626240  71.3771590   3.3507480  66.6486780
  74.0570580   9.6356370  69.0023990  74.0286010  10.0399320  68.1352420
  73.8935550   8.7066730  68.8395590  70.5723510   2.2917080  56.9041110
  70.4521110   3.0179170  56.2922380  70.2624400   1.5219990  56.4269020
  68.2108880   5.4632220  62.7109750  68.2889300   5.5980990  61.7665470
  68.8250560   4.7548110  62.9037870  69.4556510   7.1632410  59.1215930
  69.0484590   7.3047000  58.2669530  70.3469520   6.8792570  58.9187140
  73.7278170  11.3778190  57.2338600  73.5520650  10.4613730  57.0206400
  72.8733910  11.7365480  57.4736400  68.2668400   6.5046390  65.2504210
  68.4299440   6.0351750  64.4323580  68.7320850   5.9969950  65.9153050
  74.7638200   1.9785800  53.5333290  74.1955100   1.5304050  52.9069200
  75.4727200   2.3378580  52.9998440  69.8407380   5.8797820  67.4100020
  69.4562170   5.2391490  68.0082980  70.1519570   6.5833940  67.9794750
  75.9904520   2.7274360  62.8908640  76.3574650   2.2532930  63.6369980
  75.8009580   3.6015930  63.2316980  73.7803890   1.7683000  65.2092850
  73.4760960   2.6474980  65.4343210  74.7350350   1.8282790  65.2450290
  72.3085680   5.9743990  55.8059700  71.5347940   5.4341610  55.6458420
  73.0380310   5.4550600  55.4677460  72.3523080   5.6424370  59.4438510
  72.8701750   4.8392630  59.3895400  71.9007100   5.5803510  60.2855340
  77.2392580   6.9090650  54.7165810  77.5808280   7.6532880  54.2209130
  76.4105290   7.2221770  55.0790640  69.8367620   2.6085740  66.3564210
  69.4782560   3.2739590  66.9437550  69.5422180   1.7769290  66.7276830
  73.0380740   3.0669980  69.2403760  72.7380880   3.2127160  68.3431580
  73.8091980   2.5075270  69.1477150  76.2083270   6.9904180  57.4881730
  76.8954400   7.5373390  57.8689320  75.4215690   7.5344910  57.5231340
  68.3475670   2.6077000  52.9798810  69.2170520   2.8901800  53.2634730
  67.8565990   3.4212870  52.8647620  75.5110480   3.9950210  57.1007090
  75.9673260   4.8055460  57.3267280  75.1598690   3.6773350  57.9325580
  68.7146920  11.8204380  53.5460440  69.0744560  12.4193720  52.8917710
  68.5739260  12.3664270  54.3195470  68.6988780  10.0859240  68.0202840
  68.8079900   9.1453980  67.8798230  68.0469340  10.3513990  67.3716570
  76.6901370   8.3575130  69.4200960  76.3698240   7.6384370  69.9646650
  76.0159730   9.0330200  69.4937020  74.7315540   9.2035580  54.3634110
  74.7225640   9.9365270  53.7478620  73.8113900   8.9567160  54.4561070
  70.3322180   4.4250470  55.1080870  69.7250130   5.1649370  55.1176170
  70.8071530   4.5149830  54.2819070  76.3593250  11.7850140  57.7206970
  76.6134750  11.7471530  56.7986340  75.4105730  11.6583470  57.7135220
  72.3427470   4.3861620  52.8569440  73.1090740   4.2742980  53.4194870
  72.4202160   3.6899590  52.2046210  71.8388940  11.9682080  60.6436870
  72.5751420  11.4197540  60.9145440  72.2229860  12.8338090  60.5042860
  68.7234420   8.0355650  56.5178380  67.7974200   8.2776790  56.5083790
  69.1890850   8.8629910  56.3963130  70.8447220  11.1528150  69.8322450
  71.6459950  11.4740200  70.2457850  70.3299040  10.7923730  70.5542360
  74.9491250  11.1412390  52.4662440  75.7419860  11.4301220  52.0144230
  74.4295600  10.7104560  51.7874920  68.5645030   3.6401610  68.7758500
  69.0684050   3.0608890  69.3474730  67.8252450   3.9241840  69.3134870
  75.4668650   6.3615800  52.3304790  75.3619290   5.7468150  53.0566170
  75.2992870   5.8381690  51.5467800  75.6182970   5.0472600  68.3094020
  74.8528640   5.6157600  68.2248690  75.7998930   4.7548810  67.4162250
  70.5968110   1.7831200  69.6708570  70.6373450   1.4845070  70.5793800
  71.4513610   2.1838810  69.5116090  74.3746500   4.3826750  54.8312080
  74.7962920   4.2166620  55.6743470  74.4997340   3.5726980  54.3367220
  76.8874140   3.4064360  52.0789180  77.4079800   2.6913380  51.7130330
  77.5342540   4.0450230  52.3789690  76.1967210   4.7813240  65.3720180
  76.6155320   5.6245970  65.1996420  75.2775840   4.9185280  65.1426960
  74.0474630  11.0866250  66.4877910  73.5095720  11.8112310  66.1686610
  74.3008590  10.6096590  65.6975250  76.9036840  12.3217460  66.7464560
  76.8295540  13.2252600  67.0536930  76.0015680  12.0029360  66.7186630
  71.0918330   6.8603020  52.5977920  71.5293200   7.4032690  53.2535500
  71.5766060   6.0349970  52.6074260  68.3064130   9.6492050  60.0498180
  68.6367140   8.7813110  59.8176820  68.7355130   9.8550570  60.8803140
  72.9026050   7.9801060  57.7100150  72.6021590   7.8566030  58.6104060
  72.7963540   7.1209650  57.3015880  68.7954340  10.5162640  62.7879810
  68.3585330  10.6963440  63.6203960  69.3632020  11.2737260  62.6461530
  69.6654700   3.4135440  63.6872030  70.0327740   3.3262840  64.5668050
  69.0965520   2.6501990  63.5878890  71.0806780   7.9268130  68.8492180
  71.0376410   7.5561040  69.7306640  71.2117790   8.8645700  68.9894000
  74.7812810   9.4827720  64.4501900  74.5404170   9.7502280  63.5632420
  75.7215450   9.6533450  64.5052760  70.9194810  10.8730380  65.9689960
  70.3255130  10.7415080  66.7080000  70.9118650  10.0368520  65.5032060
  70.5507040   8.2388760  64.9198000  69.8241100   7.6194050  64.8523950
  70.6116190   8.6329370  64.0496080  74.1552140  10.4533760  61.7047410
  74.6717160   9.8421120  61.1795670  74.8049520  10.9562540  62.1958420
  76.8947640  11.3442250  62.5316390  77.1825450  11.0896550  61.6549400
  77.4070860  10.7919610  63.1221960  68.8337040  11.5563150  58.1294760
  68.6659080  10.9233830  58.8276650  67.9671550  11.7622550  57.7788950
  70.4399740  10.2496380  55.5744900  69.9147360  10.6304410  54.8706860
  70.3644320  10.8747150  56.2954610  73.0392710  12.1978760  54.4494150
  73.7711530  11.9138040  53.9018040  73.2986380  11.9592040  55.3393530
  72.2007500   8.3143490  54.4540480  71.5716380   8.7828590  55.0026310
  72.3155330   7.4692710  54.8886670  71.8041090   4.4547980  43.3626710
  70.9725970   4.1996690  43.7623220  72.4122070   4.5258750  44.0984630
  71.7842350   8.4888070  43.5584730  72.0870390   7.5985810  43.3794950
  72.5285940   9.0458290  43.3306980  68.1766050   2.0155520  43.0308800
  68.7482160   1.2477720  43.0312440  68.1767590   2.3144280  42.1215410
  73.7641110   5.2461480  44.9569580  73.4310490   5.8730400  45.5990650
  73.9407790   5.7723360  44.1771250  72.9760210   7.2142280  46.7718760
  73.5934210   7.8893360  46.4903210  72.1153330   7.6230260  46.6806260
  68.2692550   6.4042140  35.6525610  67.8920530   6.8929240  34.9210510
  68.5265620   7.0767420  36.2832140  73.8718880   3.3972100  40.6290970
  73.4675880   2.6849350  40.1336870  73.9582000   3.0525340  41.5179010
  74.3400580   7.0839660  42.7930180  74.0428870   6.4785130  42.1137960
  75.2900400   7.1216970  42.6819540  73.4319010   6.8221350  49.4437980
  72.5347540   7.0461320  49.6911380  73.4571880   6.9456290  48.4949380
  72.2590230   3.6934670  48.0195350  72.1198000   4.5657470  48.3882750
  71.3771590   3.3507480  47.8743290  74.0570580   9.6356370  50.2280500
  74.0286010  10.0399320  49.3608930  73.8935550   8.7066730  50.0652100
  70.5723510   2.2917080  38.1297620  70.4521110   3.0179170  37.5178890
  70.2624400   1.5219990  37.6525530  68.2108880   5.4632220  43.9366260
  68.2889300   5.5980990  42.9921980  68.8250560   4.7548110  44.1294380
  69.4556510   7.1632410  40.3472440  69.0484590   7.3047000  39.4926040
  70.3469520   6.8792570  40.1443650  73.7278170  11.3778190  38.4595110
  73.5520650  10.4613730  38.2462910  72.8733910  11.7365480  38.6992910
  68.2668400   6.5046390  46.4760720  68.4299440   6.0351750  45.6580090
  68.7320850   5.9969950  47.1409560  74.7638200   1.9785800  34.7589800
  74.1955100   1.5304050  34.1325710  75.4727200   2.3378580  34.2254950
  69.8407380   5.8797820  48.6356530  69.4562170   5.2391490  49.2339490
  70.1519570   6.5833940  49.2051260  75.9904520   2.7274360  44.1165150
  76.3574650   2.2532930  44.8626490  75.8009580   3.6015930  44.4573490
  73.7803890   1.7683000  46.4349360  73.4760960   2.6474980  46.6599720
  74.7350350   1.8282790  46.4706800  72.3085680   5.9743990  37.0316210
  71.5347940   5.4341610  36.8714930  73.0380310   5.4550600  36.6933970
  72.3523080   5.6424370  40.6695020  72.8701750   4.8392630  40.6151910
  71.9007100   5.5803510  41.5111850  77.2392580   6.9090650  35.9422320
  77.5808280   7.6532880  35.4465640  76.4105290   7.2221770  36.3047150
  69.8367620   2.6085740  47.5820720  69.4782560   3.2739590  48.1694060
  69.5422180   1.7769290  47.9533340  73.0380740   3.0669980  50.4660270
  72.7380880   3.2127160  49.5688090  73.8091980   2.5075270  50.3733660
  76.2083270   6.9904180  38.7138240  76.8954400   7.5373390  39.0945830
  75.4215690   7.5344910  38.7487850  68.3475670   2.6077000  34.2055320
  69.2170520   2.8901800  34.4891240  67.8565990   3.4212870  34.0904130
  75.5110480   3.9950210  38.3263600  75.9673260   4.8055460  38.5523790
  75.1598690   3.6773350  39.1582090  68.7146920  11.8204380  34.7716950
  69.0744560  12.4193720  34.1174220  68.5739260  12.3664270  35.5451980
  68.6988780  10.0859240  49.2459350  68.8079900   9.1453980  49.1054740
  68.0469340  10.3513990  48.5973080  76.6901370   8.3575130  50.6457470
  76.3698240   7.6384370  51.1903160  76.0159730   9.0330200  50.7193530
  74.7315540   9.2035580  35.5890620  74.7225640   9.9365270  34.9735130
  73.8113900   8.9567160  35.6817580  70.3322180   4.4250470  36.3337380
  69.7250130   5.1649370  36.3432680  70.8071530   4.5149830  35.5075580
  76.3593250  11.7850140  38.9463480  76.6134750  11.7471530  38.0242850
  75.4105730  11.6583470  38.9391730  72.3427470   4.3861620  34.0825950
  73.1090740   4.2742980  34.6451380  72.4202160   3.6899590  33.4302720
  71.8388940  11.9682080  41.8693380  72.5751420  11.4197540  42.1401950
  72.2229860  12.8338090  41.7299370  68.7234420   8.0355650  37.7434890
  67.7974200   8.2776790  37.7340300  69.1890850   8.8629910  37.6219640
  70.8447220  11.1528150  51.0578960  71.6459950  11.4740200  51.4714360
  70.3299040  10.7923730  51.7798870  74.9491250  11.1412390  33.6918950
  75.7419860  11.4301220  33.2400740  74.4295600  10.7104560  33.0131430
  68.5645030   3.6401610  50.0015010  69.0684050   3.0608890  50.5731240
  67.8252450   3.9241840  50.5391380  75.4668650   6.3615800  33.5561300
  75.3619290   5.7468150  34.2822680  75.2992870   5.8381690  32.7724310
  75.6182970   5.0472600  49.5350530  74.8528640   5.6157600  49.4505200
  75.7998930   4.7548810  48.6418760  70.5968110   1.7831200  50.8965080
  70.6373450   1.4845070  51.8050310  71.4513610   2.1838810  50.7372600
  74.3746500   4.3826750  36.0568590  74.7962920   4.2166620  36.8999980
  74.4997340   3.5726980  35.5623730  76.8874140   3.4064360  33.3045690
  77.4079800   2.6913380  32.9386840  77.5342540   4.0450230  33.6046200
  76.1967210   4.7813240  46.5976690  76.6155320   5.6245970  46.4252930
  75.2775840   4.9185280  46.3683470  74.0474630  11.0866250  47.7134420
  73.5095720  11.8112310  47.3943120  74.3008590  10.6096590  46.9231760
  76.9036840  12.3217460  47.9721070  76.8295540  13.2252600  48.2793440
  76.0015680  12.0029360  47.9443140  71.0918330   6.8603020  33.8234430
  71.5293200   7.4032690  34.4792010  71.5766060   6.0349970  33.8330770
  68.3064130   9.6492050  41.2754690  68.6367140   8.7813110  41.0433330
  68.7355130   9.8550570  42.1059650  72.9026050   7.9801060  38.9356660
  72.6021590   7.8566030  39.8360570  72.7963540   7.1209650  38.5272390
  68.7954340  10.5162640  44.0136320  68.3585330  10.6963440  44.8460470
  69.3632020  11.2737260  43.8718040  68.6278770   3.0282870  40.3725200
  67.9727610   2.7594510  39.7284900  69.4656720   2.9187350  39.9227180
  69.6654700   3.4135440  44.9128540  70.0327740   3.3262840  45.7924560
  69.0965520   2.6501990  44.8135400  71.0806780   7.9268130  50.0748690
  71.0376410   7.5561040  50.9563150  71.2117790   8.8645700  50.2150510
  74.7812810   9.4827720  45.6758410  74.5404170   9.7502280  44.7888930
  75.7215450   9.6533450  45.7309270  70.9194810  10.8730380  47.1946470
  70.3255130  10.7415080  47.9336510  70.9118650  10.0368520  46.7288570
  70.5507040   8.2388760  46.1454510  69.8241100   7.6194050  46.0780460
  70.6116190   8.6329370  45.2752590  74.1552140  10.4533760  42.9303920
  74.6717160   9.8421120  42.4052180  74.8049520  10.9562540  43.4214930
  76.8947640  11.3442250  43.7572900  77.1825450  11.0896550  42.8805910
  77.4070860  10.7919610  44.3478470  68.8337040  11.5563150  39.3551270
  68.6659080  10.9233830  40.0533160  67.9671550  11.7622550  39.0045460
  70.4399740  10.2496380  36.8001410  69.9147360  10.6304410  36.0963370
  70.3644320  10.8747150  37.5211120  73.0392710  12.1978760  35.6750660
  73.7711530  11.9138040  35.1274550  73.2986380  11.9592040  36.5650040
  72.2007500   8.3143490  35.6796990  71.5716380   8.7828590  36.2282820
  72.3155330   7.4692710  36.1143180  71.8041090   4.4547980  24.5883220
  70.9725970   4.1996690  24.9879730  72.4122070   4.5258750  25.3241140
  71.7842350   8.4888070  24.7841240  72.0870390   7.5985810  24.6051460
  72.5285940   9.0458290  24.5563490  68.1766050   2.0155520  24.2565310
  68.7482160   1.2477720  24.2568950  68.1767590   2.3144280  23.3471920
  73.7641110   5.2461480  26.1826090  73.4310490   5.8730400  26.8247160
  73.9407790   5.7723360  25.4027760  72.9760210   7.2142280  27.9975270
  73.5934210   7.8893360  27.7159720  72.1153330   7.6230260  27.9062770
  68.2692550   6.4042140  16.8782120  67.8920530   6.8929240  16.1467020
  68.5265620   7.0767420  17.5088650  73.8718880   3.3972100  21.8547480
  73.4675880   2.6849350  21.3593380  73.9582000   3.0525340  22.7435520
  74.3400580   7.0839660  24.0186690  74.0428870   6.4785130  23.3394470
  75.2900400   7.1216970  23.9076050  73.4319010   6.8221350  30.6694490
  72.5347540   7.0461320  30.9167890  73.4571880   6.9456290  29.7205890
  72.2590230   3.6934670  29.2451860  72.1198000   4.5657470  29.6139260
  71.3771590   3.3507480  29.0999800  74.0570580   9.6356370  31.4537010
  74.0286010  10.0399320  30.5865440  73.8935550   8.7066730  31.2908610
  70.5723510   2.2917080  19.3554130  70.4521110   3.0179170  18.7435400
  70.2624400   1.5219990  18.8782040  68.2108880   5.4632220  25.1622770
  68.2889300   5.5980990  24.2178490  68.8250560   4.7548110  25.3550890
  69.4556510   7.1632410  21.5728950  69.0484590   7.3047000  20.7182550
  70.3469520   6.8792570  21.3700160  73.7278170  11.3778190  19.6851620
  73.5520650  10.4613730  19.4719420  72.8733910  11.7365480  19.9249420
  68.2668400   6.5046390  27.7017230  68.4299440   6.0351750  26.8836600
  68.7320850   5.9969950  28.3666070  74.7638200   1.9785800  15.9846310
  74.1955100   1.5304050  15.3582220  75.4727200   2.3378580  15.4511460
  69.8407380   5.8797820  29.8613040  69.4562170   5.2391490  30.4596000
  70.1519570   6.5833940  30.4307770  75.9904520   2.7274360  25.3421660
  76.3574650   2.2532930  26.0883000  75.8009580   3.6015930  25.6830000
  73.7803890   1.7683000  27.6605870  73.4760960   2.6474980  27.8856230
  74.7350350   1.8282790  27.6963310  72.3085680   5.9743990  18.2572720
  71.5347940   5.4341610  18.0971440  73.0380310   5.4550600  17.9190480
  72.3523080   5.6424370  21.8951530  72.8701750   4.8392630  21.8408420
  71.9007100   5.5803510  22.7368360  77.2392580   6.9090650  17.1678830
  77.5808280   7.6532880  16.6722150  76.4105290   7.2221770  17.5303660
  69.8367620   2.6085740  28.8077230  69.4782560   3.2739590  29.3950570
  69.5422180   1.7769290  29.1789850  73.0380740   3.0669980  31.6916780
  72.7380880   3.2127160  30.7944600  73.8091980   2.5075270  31.5990170
  76.2083270   6.9904180  19.9394750  76.8954400   7.5373390  20.3202340
  75.4215690   7.5344910  19.9744360  68.3475670   2.6077000  15.4311830
  69.2170520   2.8901800  15.7147750  67.8565990   3.4212870  15.3160640
  75.5110480   3.9950210  19.5520110  75.9673260   4.8055460  19.7780300
  75.1598690   3.6773350  20.3838600  68.7146920  11.8204380  15.9973460
  69.0744560  12.4193720  15.3430730  68.5739260  12.3664270  16.7708490
  68.6988780  10.0859240  30.4715860  68.8079900   9.1453980  30.3311250
  68.0469340  10.3513990  29.8229590  76.6901370   8.3575130  31.8713980
  76.3698240   7.6384370  32.4159670  76.0159730   9.0330200  31.9450040
  74.7315540   9.2035580  16.8147130  74.7225640   9.9365270  16.1991640
  73.8113900   8.9567160  16.9074090  70.3322180   4.4250470  17.5593890
  69.7250130   5.1649370  17.5689190  70.8071530   4.5149830  16.7332090
  76.3593250  11.7850140  20.1719990  76.6134750  11.7471530  19.2499360
  75.4105730  11.6583470  20.1648240  72.3427470   4.3861620  15.3082460
  73.1090740   4.2742980  15.8707890  72.4202160   3.6899590  14.6559230
  71.8388940  11.9682080  23.0949890  72.5751420  11.4197540  23.3658460
  72.2229860  12.8338090  22.9555880  68.7234420   8.0355650  18.9691400
  67.7974200   8.2776790  18.9596810  69.1890850   8.8629910  18.8476150
  70.8447220  11.1528150  32.2835470  71.6459950  11.4740200  32.6970870
  70.3299040  10.7923730  33.0055380  74.9491250  11.1412390  14.9175460
  75.7419860  11.4301220  14.4657250  74.4295600  10.7104560  14.2387940
  68.5645030   3.6401610  31.2271520  69.0684050   3.0608890  31.7987750
  67.8252450   3.9241840  31.7647890  75.4668650   6.3615800  14.7817810
  75.3619290   5.7468150  15.5079190  75.2992870   5.8381690  13.9980820
  75.6182970   5.0472600  30.7607040  74.8528640   5.6157600  30.6761710
  75.7998930   4.7548810  29.8675270  70.5968110   1.7831200  32.1221590
  70.6373450   1.4845070  33.0306820  71.4513610   2.1838810  31.9629110
  74.3746500   4.3826750  17.2825100  74.7962920   4.2166620  18.1256490
  74.4997340   3.5726980  16.7880240  76.8874140   3.4064360  14.5302200
  77.4079800   2.6913380  14.1643350  77.5342540   4.0450230  14.8302710
  76.1967210   4.7813240  27.8233200  76.6155320   5.6245970  27.6509440
  75.2775840   4.9185280  27.5939980  74.0474630  11.0866250  28.9390930
  73.5095720  11.8112310  28.6199630  74.3008590  10.6096590  28.1488270
  76.9036840  12.3217460  29.1977580  76.8295540  13.2252600  29.5049950
  76.0015680  12.0029360  29.1699650  71.0918330   6.8603020  15.0490940
  71.5293200   7.4032690  15.7048520  71.5766060   6.0349970  15.0587280
  68.3064130   9.6492050  22.5011200  68.6367140   8.7813110  22.2689840
  68.7355130   9.8550570  23.3316160  72.9026050   7.9801060  20.1613170
  72.6021590   7.8566030  21.0617080  72.7963540   7.1209650  19.7528900
  68.7954340  10.5162640  25.2392830  68.3585330  10.6963440  26.0716980
  69.3632020  11.2737260  25.0974550  68.6278770   3.0282870  21.5981710
  67.9727610   2.7594510  20.9541410  69.4656720   2.9187350  21.1483690
  69.6654700   3.4135440  26.1385050  70.0327740   3.3262840  27.0181070
  69.0965520   2.6501990  26.0391910  71.0806780   7.9268130  31.3005200
  71.0376410   7.5561040  32.1819660  71.2117790   8.8645700  31.4407020
  74.7812810   9.4827720  26.9014920  74.5404170   9.7502280  26.0145440
  75.7215450   9.6533450  26.9565780  70.9194810  10.8730380  28.4202980
  70.3255130  10.7415080  29.1593020  70.9118650  10.0368520  27.9545080
  70.5507040   8.2388760  27.3711020  69.8241100   7.6194050  27.3036970
  70.6116190   8.6329370  26.5009100  74.1552140  10.4533760  24.1560430
  74.6717160   9.8421120  23.6308690  74.8049520  10.9562540  24.6471440
  76.8947640  11.3442250  24.9829410  77.1825450  11.0896550  24.1062420
  77.4070860  10.7919610  25.5734980  68.8337040  11.5563150  20.5807780
  68.6659080  10.9233830  21.2789670  67.9671550  11.7622550  20.2301970
  70.4399740  10.2496380  18.0257920  69.9147360  10.6304410  17.3219880
  70.3644320  10.8747150  18.7467630  73.0392710  12.1978760  16.9007170
  73.7711530  11.9138040  16.3531060  73.2986380  11.9592040  17.7906550
  72.2007500   8.3143490  16.9053500  71.5716380   8.7828590  17.4539330
  72.3155330   7.4692710  17.3399690  71.8041090   4.4547980   5.8139730
  70.9725970   4.1996690   6.2136240  72.4122070   4.5258750   6.5497650
  71.7842350   8.4888070   6.0097750  72.0870390   7.5985810   5.8307970
  72.5285940   9.0458290   5.7820000  68.1766050   2.0155520   5.4821820
  68.7482160   1.2477720   5.4825460  68.1767590   2.3144280   4.5728430
  73.7641110   5.2461480   7.4082600  73.4310490   5.8730400   8.0503670
  73.9407790   5.7723360   6.6284270  72.9760210   7.2142280   9.2231780
  73.5934210   7.8893360   8.9416230  72.1153330   7.6230260   9.1319280
  73.8718880   3.3972100   3.0803990  73.4675880   2.6849350   2.5849890
  73.9582000   3.0525340   3.9692030  74.3400580   7.0839660   5.2443200
  74.0428870   6.4785130   4.5650980  75.2900400   7.1216970   5.1332560
  73.4319010   6.8221350  11.8951000  72.5347540   7.0461320  12.1424400
  73.4571880   6.9456290  10.9462400  72.2590230   3.6934670  10.4708370
  72.1198000   4.5657470  10.8395770  71.3771590   3.3507480  10.3256310
  74.0570580   9.6356370  12.6793520  74.0286010  10.0399320  11.8121950
  73.8935550   8.7066730  12.5165120  68.2108880   5.4632220   6.3879280
  68.2889300   5.5980990   5.4435000  68.8250560   4.7548110   6.5807400
  69.4556510   7.1632410   2.7985460  69.0484590   7.3047000   1.9439060
  70.3469520   6.8792570   2.5956670  68.2668400   6.5046390   8.9273740
  68.4299440   6.0351750   8.1093110  68.7320850   5.9969950   9.5922580
  69.8407380   5.8797820  11.0869550  69.4562170   5.2391490  11.6852510
  70.1519570   6.5833940  11.6564280  75.9904520   2.7274360   6.5678170
  76.3574650   2.2532930   7.3139510  75.8009580   3.6015930   6.9086510
  73.7803890   1.7683000   8.8862380  73.4760960   2.6474980   9.1112740
  74.7350350   1.8282790   8.9219820  72.3523080   5.6424370   3.1208040
  72.8701750   4.8392630   3.0664930  71.9007100   5.5803510   3.9624870
  69.8367620   2.6085740  10.0333740  69.4782560   3.2739590  10.6207080
  69.5422180   1.7769290  10.4046360  73.0380740   3.0669980  12.9173290
  72.7380880   3.2127160  12.0201110  73.8091980   2.5075270  12.8246680
  68.6988780  10.0859240  11.6972370  68.8079900   9.1453980  11.5567760
  68.0469340  10.3513990  11.0486100  76.6901370   8.3575130  13.0970490
  76.3698240   7.6384370  13.6416180  76.0159730   9.0330200  13.1706550
  71.8388940  11.9682080   4.3206400  72.5751420  11.4197540   4.5914970
  72.2229860  12.8338090   4.1812390  70.8447220  11.1528150  13.5091980
  71.6459950  11.4740200  13.9227380  70.3299040  10.7923730  14.2311890
  68.5645030   3.6401610  12.4528030  69.0684050   3.0608890  13.0244260
  67.8252450   3.9241840  12.9904400  75.6182970   5.0472600  11.9863550
  74.8528640   5.6157600  11.9018220  75.7998930   4.7548810  11.0931780
  70.5968110   1.7831200  13.3478100  70.6373450   1.4845070  14.2563330
  71.4513610   2.1838810  13.1885620  76.1967210   4.7813240   9.0489710
  76.6155320   5.6245970   8.8765950  75.2775840   4.9185280   8.8196490
  74.0474630  11.0866250  10.1647440  73.5095720  11.8112310   9.8456140
  74.3008590  10.6096590   9.3744780  76.9036840  12.3217460  10.4234090
  76.8295540  13.2252600  10.7306460  76.0015680  12.0029360  10.3956160
  68.3064130   9.6492050   3.7267710  68.6367140   8.7813110   3.4946350
  68.7355130   9.8550570   4.5572670  68.7954340  10.5162640   6.4649340
  68.3585330  10.6963440   7.2973490  69.3632020  11.2737260   6.3231060
  68.6278770   3.0282870   2.8238220  67.9727610   2.7594510   2.1797920
  69.4656720   2.9187350   2.3740200  69.6654700   3.4135440   7.3641560
  70.0327740   3.3262840   8.2437580  69.0965520   2.6501990   7.2648420
  71.0806780   7.9268130  12.5261710  71.0376410   7.5561040  13.4076170
  71.2117790   8.8645700  12.6663530  74.7812810   9.4827720   8.1271430
  74.5404170   9.7502280   7.2401950  75.7215450   9.6533450   8.1822290
  70.9194810  10.8730380   9.6459490  70.3255130  10.7415080  10.3849530
  70.9118650  10.0368520   9.1801590  70.5507040   8.2388760   8.5967530
  69.8241100   7.6194050   8.5293480  70.6116190   8.6329370   7.7265610
  74.1552140  10.4533760   5.3816940  74.6717160   9.8421120   4.8565200
  74.8049520  10.9562540   5.8727950  76.8947640  11.3442250   6.2085920
  77.1825450  11.0896550   5.3318930  77.4070860  10.7919610   6.7991490
  60.8813730  77.4623110  96.9272150  60.8007780  76.5477720  96.6563860
  60.4678150  77.9590180  96.2211860  59.0131770  79.2402130  98.8081420
  58.2373870  78.7602570  99.0979990  59.6644700  78.5607780  98.6337580
  53.0297600  79.5521940  99.6857180  52.1982480  79.2970650 100.0853690
  53.6378580  79.6232710 100.4215100  51.4389550  74.5123830  93.4699570
  50.5506250  74.8539800  93.3679450  51.7230740  74.3124150  92.5780400
  49.4022560  77.1129480  99.3539270  49.9738670  76.3451680  99.3542910
  49.4024100  77.4118240  98.4445880  59.4845930  74.7229700  99.0420510
  59.8610750  73.8501580  98.9294180  59.3865440  75.0588400  98.1510950
  53.6150940  73.0955330  94.5037950  53.7217690  73.9959060  94.8106710
  52.7043300  73.0473300  94.2132600  63.2670050  72.2180140  95.9748850
  64.0879670  71.7276710  96.0174330  63.3004130  72.8077800  96.7280690
  51.2634100  75.0174340  99.7490540  51.9444210  75.2812710 100.3677940
  50.9482150  74.1775210 100.0828550  55.4558670  76.0641700  98.8363130
  55.9636890  76.5622670  99.4768150  55.9871910  75.2876900  98.6602490
  63.5031530  74.1580520  98.7476390  62.7987100  74.4465410  99.3279500
  63.8643690  74.9680630  98.3875950  53.4210100  72.4150220 101.1097000
  53.7626910  73.2592270 100.8150870  52.4825910  72.5633960 101.2262340
  66.5718450  73.6035310  99.1385600  65.6243360  73.6374290  99.2701030
  66.8968440  74.4174260  99.5234960  57.1037990  69.9032490  97.4341590
  57.4112970  69.3479380  96.7177090  56.1738690  70.0376950  97.2514580
  59.4918750  77.9681320  94.1701710  58.5648030  77.9018700  94.3990180
  59.6443570  78.9061450  94.0556950  59.4787830  74.2398320  91.1668870
  58.5391500  74.4012280  91.2521330  59.7971090  74.9584000  90.6204860
  66.0000590  78.9216840 101.1447900  65.1719220  78.9909930 100.6698030
  66.5951070  79.5071150 100.6763730  63.5216040  79.5301620  94.6736960
  62.9028460  79.1921170  94.0263260  63.5040490  78.8861380  95.3816150
  55.0975390  78.4946060  96.9521440  54.6932390  77.7823310  96.4567340
  55.1838510  78.1499300  97.8409480  53.8104010  75.2689270 100.7320480
  54.3618600  75.3784610  99.9573730  54.3247520  75.6426870 101.4475710
  61.6980740  78.7688430  91.6809710  62.1374020  77.9310860  91.5347530
  62.4109160  79.4017830  91.7673850  65.2797880  70.0231240  89.9950750
  64.9670540  70.1158070  90.8949820  66.0410350  70.6012270  89.9448180
  51.7980020  77.3891040  94.4528090  51.6777620  78.1153130  93.8409360
  51.4880910  76.6193950  93.9756000  54.2643680  70.7326110  97.8351760
  53.8211830  71.5135650  97.5036280  54.8228670  71.0556000  98.5422700
  57.3802500  70.3536810  92.7157590  56.7556680  70.3496680  93.4410900
  57.2932620  69.4867770  92.3193560  56.3019580  71.2773440  99.6941360
  56.5991910  72.1836270  99.6133380  56.8505140  70.7892220  99.0800930
  54.0557900  75.8559680  95.5633010  53.8298820  75.6396850  96.4679630
  53.2750430  76.2888140  95.2178980  61.2855660  75.8623050  94.1623660
  60.6864550  76.5858850  93.9787280  61.8335270  75.7999830  93.3800110
  59.8920530  74.4986590  96.1926940  60.2850100  74.8158790  95.3795630
  60.2537380  73.6198470  96.3071460  48.9284700  71.0887390  98.4157140
  48.6397750  71.6590250  99.1282120  49.6730460  70.6091840  98.7788370
  49.1154930  75.0307510  89.6259860  49.0329600  75.9738270  89.7674850
  48.7637990  74.8882420  88.7472210  60.4775670  77.0892340 100.2877720
  59.7456790  77.5979150 100.6367820  60.0800010  76.2722320  99.9866500
  56.9153060  73.7646540  98.6930210  56.9189120  73.3236490  97.8434750
  57.8104180  74.0863870  98.8002030  52.7655440  73.6473030  97.6524420
  52.4255490  74.1248260  98.4091470  52.0032760  73.1938150  97.2925520
  56.9773210  74.7658620  91.6836970  57.0986030  74.7245100  92.6322790
  56.5921720  75.6282770  91.5283700  60.9401580  72.5426020  99.7000660
  60.9574320  72.9934670 100.5442510  60.6917160  71.6431660  99.9134100
  55.9894710  77.0759760  91.0820270  55.4211610  76.6278010  90.4556180
  56.6983710  77.4352540  90.5485420  57.2161030  77.8248320 100.4395620
  57.5831160  77.3506890 101.1856960  57.0266090  78.6989890 100.7803960
  50.0801520  72.5692010  96.5689090  49.7948440  72.2047680  97.4067710
  50.0180380  71.8372470  95.9552230  59.7540110  71.4621270  93.2902460
  58.9404720  70.9634440  93.2147770  59.5602060  72.3019520  92.8738810
  62.4688500  75.8340920  91.5864620  63.3568120  76.1458150  91.4115960
  62.4393590  74.9613170  91.1945200  64.7402770  77.1452760  91.0544480
  64.6566490  77.5766980  90.2040920  65.4596960  77.6051110  91.4871300
  49.5732180  77.7050960  90.5285790  50.4427030  77.9875760  90.8121710
  49.0822500  78.5186830  90.4134600  56.7366990  79.0924170  94.6494070
  57.1929770  79.9029420  94.8754260  56.3855200  78.7747310  95.4812560
  52.6378770  69.4361820  95.1216590  52.5093400  69.4279720  96.0701510
  51.8140790  69.7744910  94.7707600  51.5578690  79.5224430  92.6567850
  50.9506640  80.2623330  92.6663150  52.0328040  79.6123790  91.8306050
  64.4973510  72.6432190  93.1412300  63.8686670  72.7477860  92.4270530
  64.0025430  72.8628970  93.9306180  56.4657540  74.9218140  94.5570180
  55.7573690  75.3904480  94.9983790  56.7502020  74.2640150  95.1915370
  60.4972970  71.6468800  95.9965970  60.3740750  71.6654930  95.0475480
  61.4457530  71.6947740  96.1164370  54.6692560  73.2303220  91.9320890
  55.5183090  73.6673370  91.8661080  54.3023830  73.5423480  92.7592950
  63.5902340  77.8015980  96.8452460  62.6492480  77.8166210  97.0200150
  63.9046410  77.0151940  97.2912760  53.5683980  79.4835580  90.4056420
  54.3347250  79.3716940  90.9681850  53.6458670  78.7873550  89.7533190
  52.2630740  76.9160650  91.0889310  52.3434330  75.9688160  91.2006710
  53.1550490  77.2467530  91.1949970  55.6003010  79.4800710  92.3799060
  56.0219430  79.3140580  93.2230450  55.7253850  78.6700940  91.8854200
  58.1130650  78.5038320  89.6276160  58.6336310  77.7887340  89.2617310
  58.7599050  79.1424190  89.9276670  54.4961910  75.5533940  89.3257220
  54.2950970  74.6901300  89.6870560  54.3253960  75.4667300  88.3878820
  61.9750220  70.3642170  91.8544100  62.2552510  69.5210070  92.2103520
  61.2015950  70.5965280  92.3682850  53.2944710  72.6534560  89.3135100
  53.5970610  72.6601990  88.4054250  54.0339300  72.3032420  89.8102760
  56.5129640  71.5969180  90.2991300  56.1651640  70.9193170  89.7193750
  56.7142410  71.1358690  91.1134690  66.3530940  79.6018900  92.4648010
  67.1149850  80.1715550  92.5707700  66.3685310  79.0346100  93.2356320
  49.8535280  78.1256830  96.6955670  49.1984120  77.8568470  96.0515370
  50.6913230  78.0161310  96.2457650  62.8025720  72.9198120  90.9174160
  63.2210600  72.7329100  90.0770820  62.4961780  72.0677170  91.2277090
  66.3015450  77.8322260  94.6149960  65.9259050  77.0650190  94.1831250
  65.5718570  78.2144960  95.1024890  49.0673360  75.3355760  92.6381000
  48.1637440  75.5985960  92.4632660  49.5513980  75.6066930  91.8580960
  65.5766410  76.0579750  97.9157200  66.1003890  75.5642400  97.2847370
  66.1625830  76.1930110  98.6604770  65.7556130  76.1419620 101.4376750
  64.8058840  76.1083160 101.5521740  65.9369140  77.0519730 101.2026520
  51.6100570  74.3921300  90.5475380  52.3192270  73.9704520  90.0622660
  50.8940510  74.4596530  89.9158730  51.2574730  70.4460630  89.5878030
  51.9802860  70.9869570  89.9059250  51.5299250  70.1724050  88.7119570
  65.0666380  75.3153100  93.8549610  65.5625500  75.0823970  94.6398490
  64.8682450  74.4764940  93.4387250  50.9466920  69.6966820  99.4900650
  51.5943110  69.1464200  99.0495810  51.3668760  69.9509970 100.3116460
  66.4953540  73.9514050  96.3887290  66.3852820  73.7970090  97.3269560
  67.2561130  73.4234990  96.1462700  67.3843810  71.7821970  89.6293430
  68.3093120  71.6503150  89.4211720  67.3619600  71.8614790  90.5829880
  67.4582300  72.5532630  92.2550140  66.6633800  72.4877750  92.7843050
  67.6625580  73.4883270  92.2435490  59.3381160  70.1806410 100.6599880
  58.5552950  70.6551910 100.9396640  59.0444090  69.2761240 100.5513060
  63.8902230  70.8829510  98.7048970  64.3310320  70.8274610  97.8570570
  63.6209820  71.7987520  98.7759150  65.7540800  70.5144750  96.7157790
  65.6929200  69.5705970  96.5688810  66.5332830  70.6224840  97.2611250
  50.6821570  70.4853890  93.1813600  51.4400930  70.5982770  92.6077630
  50.2198740  71.3223090  93.1357030  57.2235380  72.5993160  96.1715910
  56.4109890  72.2250050  95.8311790  57.7277020  71.8438240  96.4737100
  61.7260360  69.2635610  97.4098980  62.3289730  69.8355820  97.8847500
  60.9853350  69.8275050  97.1872880  64.8694960  69.6657170  92.6839260
  65.0645590  70.5640620  92.9506690  64.0824830  69.4344250  93.1772210
  53.0546720  71.0117940  91.7215570  53.5839480  70.2247740  91.5923520
  53.6875040  71.6909130  91.9551100  55.2484560  70.7493080  94.7760960
  54.6187300  70.0480390  94.9431090  54.7089700  71.5097210  94.5594120
  60.8813730  77.4623110  78.1528660  60.8007780  76.5477720  77.8820370
  60.4678150  77.9590180  77.4468370  59.0131770  79.2402130  80.0337930
  58.2373870  78.7602570  80.3236500  59.6644700  78.5607780  79.8594090
  53.0297600  79.5521940  80.9113690  52.1982480  79.2970650  81.3110200
  53.6378580  79.6232710  81.6471610  51.4389550  74.5123830  74.6956080
  50.5506250  74.8539800  74.5935960  51.7230740  74.3124150  73.8036910
  49.4022560  77.1129480  80.5795780  49.9738670  76.3451680  80.5799420
  49.4024100  77.4118240  79.6702390  50.6447430  72.5213840  82.3664710
  50.4650270  71.6239590  82.6467470  50.2427510  73.0685710  83.0411660
  59.4845930  74.7229700  80.2677020  59.8610750  73.8501580  80.1550690
  59.3865440  75.0588400  79.3767460  53.6150940  73.0955330  75.7294460
  53.7217690  73.9959060  76.0363220  52.7043300  73.0473300  75.4389110
  63.2670050  72.2180140  77.2005360  64.0879670  71.7276710  77.2430840
  63.3004130  72.8077800  77.9537200  51.2634100  75.0174340  80.9747050
  51.9444210  75.2812710  81.5934450  50.9482150  74.1775210  81.3085060
  55.4558670  76.0641700  80.0619640  55.9636890  76.5622670  80.7024660
  55.9871910  75.2876900  79.8859000  67.5569600  74.2346890  83.7648990
  66.8521770  74.6228600  83.2464100  67.8227520  74.9297180  84.3669920
  53.7394770  70.7040260  84.3283060  53.7413210  71.2212650  83.5228960
  52.9099080  70.2270440  84.3052990  63.5031530  74.1580520  79.9732900
  62.7987100  74.4465410  80.5536010  63.8643690  74.9680630  79.6132460
  53.4210100  72.4150220  82.3353510  53.7626910  73.2592270  82.0407380
  52.4825910  72.5633960  82.4518850  66.5718450  73.6035310  80.3642110
  65.6243360  73.6374290  80.4957540  66.8968440  74.4174260  80.7491470
  57.1037990  69.9032490  78.6598100  57.4112970  69.3479380  77.9433600
  56.1738690  70.0376950  78.4771090  59.4918750  77.9681320  75.3958220
  58.5648030  77.9018700  75.6246690  59.6443570  78.9061450  75.2813460
  59.4787830  74.2398320  72.3925380  58.5391500  74.4012280  72.4777840
  59.7971090  74.9584000  71.8461370  66.0000590  78.9216840  82.3704410
  65.1719220  78.9909930  81.8954540  66.5951070  79.5071150  81.9020240
  63.5216040  79.5301620  75.8993470  62.9028460  79.1921170  75.2519770
  63.5040490  78.8861380  76.6072660  62.9642600  75.7086160  83.3159280
  62.5513780  76.5339870  83.5699270  62.2318550  75.1231200  83.1235640
  55.0975390  78.4946060  78.1777950  54.6932390  77.7823310  77.6823850
  55.1838510  78.1499300  79.0665990  53.8104010  75.2689270  81.9576990
  54.3618600  75.3784610  81.1830240  54.3247520  75.6426870  82.6732220
  61.6980740  78.7688430  72.9066220  62.1374020  77.9310860  72.7604040
  62.4109160  79.4017830  72.9930360  53.4846740  78.7908630  85.5682330
  53.3454510  79.6631430  85.9369730  52.6028100  78.4481440  85.4230270
  65.2797880  70.0231240  71.2207260  64.9670540  70.1158070  72.1206330
  66.0410350  70.6012270  71.1704690  51.7980020  77.3891040  75.6784600
  51.6777620  78.1153130  75.0665870  51.4880910  76.6193950  75.2012510
  66.4899170  74.7602740  87.1981400  65.8743440  75.2682410  86.6696860
  66.1695590  73.8601070  87.1407340  54.2643680  70.7326110  79.0608270
  53.8211830  71.5135650  78.7292790  54.8228670  71.0556000  79.7679210
  58.5513490  73.5994630  84.6643590  58.0892860  73.8077650  85.4763530
  58.1491600  72.7853980  84.3614260  63.5518000  74.8203580  85.7940250
  62.7011590  74.5209330  86.1149320  63.3919790  75.0645590  84.8824070
  60.6467710  76.3205330  87.8939040  60.9721120  75.4869080  87.5541270
  61.4348040  76.8433850  88.0417370  57.3802500  70.3536810  73.9414100
  56.7556680  70.3496680  74.6667410  57.2932620  69.4867770  73.5450070
  56.3019580  71.2773440  80.9197870  56.5991910  72.1836270  80.8389890
  56.8505140  70.7892220  80.3057440  54.0557900  75.8559680  76.7889520
  53.8298820  75.6396850  77.6936140  53.2750430  76.2888140  76.4435490
  61.2855660  75.8623050  75.3880170  60.6864550  76.5858850  75.2043790
  61.8335270  75.7999830  74.6056620  56.4957110  76.7545260  87.4549790
  56.4000710  75.8139990  87.3050190  57.3389090  76.9760330  87.0597860
  59.8920530  74.4986590  77.4183450  60.2850100  74.8158790  76.6052140
  60.2537380  73.6198470  77.5327970  51.6267650  73.1658930  85.6083570
  51.2331040  74.0134140  85.8156350  50.9386050  72.5285300  85.7992210
  58.2012700  73.2493900  88.6780310  57.5111020  73.0566100  89.3126400
  58.9445000  73.5328540  89.2104610  48.9284700  71.0887390  79.6413650
  48.6397750  71.6590250  80.3538630  49.6730460  70.6091840  80.0044880
  49.1154930  75.0307510  70.8516370  49.0329600  75.9738270  70.9931360
  48.7637990  74.8882420  69.9728720  60.4775670  77.0892340  81.5134230
  59.7456790  77.5979150  81.8624330  60.0800010  76.2722320  81.2123010
  56.9153060  73.7646540  79.9186720  56.9189120  73.3236490  79.0691260
  57.8104180  74.0863870  80.0258540  52.7655440  73.6473030  78.8780930
  52.4255490  74.1248260  79.6347980  52.0032760  73.1938150  78.5182030
  56.9773210  74.7658620  72.9093480  57.0986030  74.7245100  73.8579300
  56.5921720  75.6282770  72.7540210  60.9401580  72.5426020  80.9257170
  60.9574320  72.9934670  81.7699020  60.6917160  71.6431660  81.1390610
  55.9894710  77.0759760  72.3076780  55.4211610  76.6278010  71.6812690
  56.6983710  77.4352540  71.7741930  64.3672330  69.9558200  86.7643550
  64.6918100  69.2247860  87.2901530  64.4028840  69.6371840  85.8624540
  57.2161030  77.8248320  81.6652130  57.5831160  77.3506890  82.4113470
  57.0266090  78.6989890  82.0060470  50.0801520  72.5692010  77.7945600
  49.7948440  72.2047680  78.6324220  50.0180380  71.8372470  77.1808740
  55.0060400  76.8656960  83.9836340  54.7017470  77.7448940  84.2086700
  55.9606860  76.9256750  84.0193780  59.7540110  71.4621270  74.5158970
  58.9404720  70.9634440  74.4404280  59.5602060  72.3019520  74.0995320
  59.6748970  80.1392370  86.2598580  59.6086280  79.2188040  86.0056170
  59.0454110  80.2367810  86.9743220  62.4688500  75.8340920  72.8121130
  63.3568120  76.1458150  72.6372470  62.4393590  74.9613170  72.4201710
  51.0624130  77.7059700  85.1307700  50.7039070  78.3713550  85.7181040
  50.7678690  76.8743250  85.5020320  54.2637250  78.1643940  88.0147250
  53.9637390  78.3101120  87.1175070  55.0348490  77.6049230  87.9220640
  64.7402770  77.1452760  72.2800990  64.6566490  77.5766980  71.4297430
  65.4596960  77.6051110  72.7127810  65.8176910  79.6020280  85.3570960
  65.0925100  80.1949060  85.1600350  66.3452370  79.5943820  84.5584330
  49.5732180  77.7050960  71.7542300  50.4427030  77.9875760  72.0378220
  49.0822500  78.5186830  71.6391110  56.7366990  79.0924170  75.8750580
  57.1929770  79.9029420  76.1010770  56.3855200  78.7747310  76.7069070
  52.6378770  69.4361820  76.3473100  52.5093400  69.4279720  77.2958020
  51.8140790  69.7744910  75.9964110  49.6372700  71.1952940  85.8079800
  48.9231220  71.3949860  86.4132410  50.0567740  70.4192510  86.1794600
  51.5578690  79.5224430  73.8824360  50.9506640  80.2623330  73.8919660
  52.0328040  79.6123790  73.0562560  61.1311480  73.6875250  83.5581250
  61.4992300  72.8670460  83.8860820  60.2709680  73.7477140  83.9736900
  64.4973510  72.6432190  74.3668810  63.8686670  72.7477860  73.6527040
  64.0025430  72.8628970  75.1562690  56.4657540  74.9218140  75.7826690
  55.7573690  75.3904480  76.2240300  56.7502020  74.2640150  76.4171880
  58.0913470  76.3414840  83.7819220  58.5898720  76.8160660  84.4471070
  58.2336420  75.4178360  83.9889250  60.4972970  71.6468800  77.2222480
  60.3740750  71.6654930  76.2731990  61.4457530  71.6947740  77.3420880
  54.6692560  73.2303220  73.1577400  55.5183090  73.6673370  73.0917590
  54.3023830  73.5423480  73.9849460  65.2980330  72.5582800  84.6247610
  64.7953930  73.2988200  84.9641420  66.1136990  72.9466800  84.3084400
  63.5902340  77.8015980  78.0708970  62.6492480  77.8166210  78.2456660
  63.9046410  77.0151940  78.5169270  53.5683980  79.4835580  71.6312930
  54.3347250  79.3716940  72.1938360  53.6458670  78.7873550  70.9789700
  52.2630740  76.9160650  72.3145820  52.3434330  75.9688160  72.4263220
  53.1550490  77.2467530  72.4206480  49.7901540  78.7375570  87.5501990
  50.2940560  78.1582850  88.1218220  49.0508960  79.0215800  88.0878360
  51.8224620  76.8805160  88.4452060  51.8629960  76.5819030  89.3537290
  52.6770120  77.2812770  88.2859580  55.6003010  79.4800710  73.6055570
  56.0219430  79.3140580  74.4486960  55.7253850  78.6700940  73.1110710
  53.7630430  75.4597260  86.4126550  53.2326890  74.9688210  85.7849890
  54.4318500  75.8881460  85.8784480  58.1130650  78.5038320  70.8532670
  58.6336310  77.7887340  70.4873820  58.7599050  79.1424190  71.1533180
  62.6608490  79.9266720  86.1767740  63.0749510  80.0811800  87.0258160
  61.7259490  80.0521940  86.3393520  63.1330660  77.2662880  88.1806890
  63.7151430  76.5115200  88.0927370  63.3092430  77.7970320  87.4038370
  54.2502730  72.4259630  86.4923840  54.1559600  71.8080380  85.7674710
  53.6700120  73.1525920  86.2653750  57.0164170  70.9832870  83.5251230
  56.5681470  71.0057130  82.6796780  56.3829370  70.5851890  84.1221530
  59.7587620  77.6103380  85.5301510  59.8783830  77.0144520  86.2696350
  60.6181620  77.6473070  85.1102810  62.0975520  78.1640570  84.1064020
  61.5710740  78.6883190  83.5029160  62.4406860  78.7967960  84.7373750
  54.4961910  75.5533940  70.5513730  54.2950970  74.6901300  70.9127070
  54.3253960  75.4667300  69.6135330  56.5256390  74.1524730  86.7877330
  57.1156080  73.8440580  87.4755150  55.7076630  73.6804480  86.9437230
  61.3449820  73.7690540  87.0210350  60.6565340  73.1072080  86.9560340
  62.0655840  73.3228810  87.4658810  61.9750220  70.3642170  73.0800610
  62.2552510  69.5210070  73.4360030  61.2015950  70.5965280  73.5939360
  53.2944710  72.6534560  70.5391610  53.5970610  72.6601990  69.6310760
  54.0339300  72.3032420  71.0359270  56.5129640  71.5969180  71.5247810
  56.1651640  70.9193170  70.9450260  56.7142410  71.1358690  72.3391200
  66.3530940  79.6018900  73.6904520  67.1149850  80.1715550  73.7964210
  66.3685310  79.0346100  74.4612830  49.8535280  78.1256830  77.9212180
  49.1984120  77.8568470  77.2771880  50.6913230  78.0161310  77.4714160
  62.8025720  72.9198120  72.1430670  63.2210600  72.7329100  71.3027330
  62.4961780  72.0677170  72.4533600  66.3015450  77.8322260  75.8406470
  65.9259050  77.0650190  75.4087760  65.5718570  78.2144960  76.3281400
  50.8911210  78.5109400  82.4615520  51.2584250  78.4236800  83.3411540
  50.3222030  77.7475950  82.3622380  65.6915070  76.9793780  85.4745990
  65.4601160  76.7506530  84.5743940  65.9519620  77.8993330  85.4290880
  50.4427210  75.4218490  86.3673940  49.5483260  75.3885250  86.7067650
  50.9824760  75.6205280  87.1325190  64.1303140  72.2050210  88.2525690
  65.0073320  72.2133610  88.6359690  64.1423980  71.4681050  87.6418040
  49.0673360  75.3355760  73.8637510  48.1637440  75.5985960  73.6889170
  49.5513980  75.6066930  73.0837470  65.5766410  76.0579750  79.1413710
  66.1003890  75.5642400  78.5103880  66.1625830  76.1930110  79.8861280
  65.7556130  76.1419620  82.6633260  64.8058840  76.1083160  82.7778250
  65.9369140  77.0519730  82.4283030  51.6100570  74.3921300  71.7731890
  52.3192270  73.9704520  71.2879170  50.8940510  74.4596530  71.1415240
  51.2574730  70.4460630  70.8134540  51.9802860  70.9869570  71.1315760
  51.5299250  70.1724050  69.9376080  65.0666380  75.3153100  75.0806120
  65.5625500  75.0823970  75.8655000  64.8682450  74.4764940  74.6643760
  50.9466920  69.6966820  80.7157160  51.5943110  69.1464200  80.2752320
  51.3668760  69.9509970  81.5372970  66.4953540  73.9514050  77.6143800
  66.3852820  73.7970090  78.5526070  67.2561130  73.4234990  77.3719210
  64.8419260  69.8908180  84.0726800  65.4791480  70.5042320  84.4385990
  64.9894150  69.9268840  83.1276030  67.3843810  71.7821970  70.8549940
  68.3093120  71.6503150  70.6468230  67.3619600  71.8614790  71.8086390
  67.4582300  72.5532630  73.4806650  66.6633800  72.4877750  74.0099560
  67.6625580  73.4883270  73.4692000  50.6998920  69.8522490  83.4582480
  50.3513740  70.3086310  84.2240660  50.3686620  68.9579620  83.5404910
  58.2123740  71.0434370  86.9801900  58.1512630  71.6356200  87.7297310
  59.1524120  70.9360330  86.8352160  60.8498300  70.7004430  86.6194190
  61.4638710  71.0183720  85.9575270  61.3947860  70.2153020  87.2390050
  51.3719560  69.3798690  86.7333250  51.9202550  69.1986740  85.9699360
  51.4374870  68.5892800  87.2689560  61.5906340  69.2636570  82.9463480
  60.7166180  69.5971680  82.7436410  61.4817090  68.7909750  83.7715350
  62.4978320  71.4707440  84.3305200  62.1691680  70.6559200  83.9506930
  63.4460620  71.4277250  84.2070890  59.3381160  70.1806410  81.8856390
  58.5552950  70.6551910  82.1653150  59.0444090  69.2761240  81.7769570
  63.8902230  70.8829510  79.9305480  64.3310320  70.8274610  79.0827080
  63.6209820  71.7987520  80.0015660  65.7540800  70.5144750  77.9414300
  65.6929200  69.5705970  77.7945320  66.5332830  70.6224840  78.4867760
  50.6821570  70.4853890  74.4070110  51.4400930  70.5982770  73.8334140
  50.2198740  71.3223090  74.3613540  57.2235380  72.5993160  77.3972420
  56.4109890  72.2250050  77.0568300  57.7277020  71.8438240  77.6993610
  61.7260360  69.2635610  78.6355490  62.3289730  69.8355820  79.1104010
  60.9853350  69.8275050  78.4129390  64.8694960  69.6657170  73.9095770
  65.0645590  70.5640620  74.1763200  64.0824830  69.4344250  74.4028720
  53.0546720  71.0117940  72.9472080  53.5839480  70.2247740  72.8180030
  53.6875040  71.6909130  73.1807610  55.2484560  70.7493080  76.0017470
  54.6187300  70.0480390  76.1687600  54.7089700  71.5097210  75.7850630
  55.3740120  70.0277060  88.4369960  55.0924390  70.5310660  87.6730780
  55.7559820  69.2298810  88.0712090  61.9755580  69.4430640  89.0150430
  61.8621030  69.7625250  89.9101950  62.7925320  69.8443150  88.7187710
  60.8813730  77.4623110  59.3785170  60.8007780  76.5477720  59.1076880
  60.4678150  77.9590180  58.6724880  59.0131770  79.2402130  61.2594440
  58.2373870  78.7602570  61.5493010  59.6644700  78.5607780  61.0850600
  53.0297600  79.5521940  62.1370200  52.1982480  79.2970650  62.5366710
  53.6378580  79.6232710  62.8728120  51.4389550  74.5123830  55.9212590
  50.5506250  74.8539800  55.8192470  51.7230740  74.3124150  55.0293420
  49.4022560  77.1129480  61.8052290  49.9738670  76.3451680  61.8055930
  49.4024100  77.4118240  60.8958900  50.6447430  72.5213840  63.5921220
  50.4650270  71.6239590  63.8723980  50.2427510  73.0685710  64.2668170
  59.4845930  74.7229700  61.4933530  59.8610750  73.8501580  61.3807200
  59.3865440  75.0588400  60.6023970  53.6150940  73.0955330  56.9550970
  53.7217690  73.9959060  57.2619730  52.7043300  73.0473300  56.6645620
  63.2670050  72.2180140  58.4261870  64.0879670  71.7276710  58.4687350
  63.3004130  72.8077800  59.1793710  51.2634100  75.0174340  62.2003560
  51.9444210  75.2812710  62.8190960  50.9482150  74.1775210  62.5341570
  55.4558670  76.0641700  61.2876150  55.9636890  76.5622670  61.9281170
  55.9871910  75.2876900  61.1115510  67.5569600  74.2346890  64.9905500
  66.8521770  74.6228600  64.4720610  67.8227520  74.9297180  65.5926430
  53.7394770  70.7040260  65.5539570  53.7413210  71.2212650  64.7485470
  52.9099080  70.2270440  65.5309500  63.5031530  74.1580520  61.1989410
  62.7987100  74.4465410  61.7792520  63.8643690  74.9680630  60.8388970
  53.4210100  72.4150220  63.5610020  53.7626910  73.2592270  63.2663890
  52.4825910  72.5633960  63.6775360  66.5718450  73.6035310  61.5898620
  65.6243360  73.6374290  61.7214050  66.8968440  74.4174260  61.9747980
  57.1037990  69.9032490  59.8854610  57.4112970  69.3479380  59.1690110
  56.1738690  70.0376950  59.7027600  59.4918750  77.9681320  56.6214730
  58.5648030  77.9018700  56.8503200  59.6443570  78.9061450  56.5069970
  59.4787830  74.2398320  53.6181890  58.5391500  74.4012280  53.7034350
  59.7971090  74.9584000  53.0717880  66.0000590  78.9216840  63.5960920
  65.1719220  78.9909930  63.1211050  66.5951070  79.5071150  63.1276750
  63.5216040  79.5301620  57.1249980  62.9028460  79.1921170  56.4776280
  63.5040490  78.8861380  57.8329170  62.9642600  75.7086160  64.5415790
  62.5513780  76.5339870  64.7955780  62.2318550  75.1231200  64.3492150
  55.0975390  78.4946060  59.4034460  54.6932390  77.7823310  58.9080360
  55.1838510  78.1499300  60.2922500  53.8104010  75.2689270  63.1833500
  54.3618600  75.3784610  62.4086750  54.3247520  75.6426870  63.8988730
  61.6980740  78.7688430  54.1322730  62.1374020  77.9310860  53.9860550
  62.4109160  79.4017830  54.2186870  53.4846740  78.7908630  66.7938840
  53.3454510  79.6631430  67.1626240  52.6028100  78.4481440  66.6486780
  65.2797880  70.0231240  52.4463770  64.9670540  70.1158070  53.3462840
  66.0410350  70.6012270  52.3961200  51.7980020  77.3891040  56.9041110
  51.6777620  78.1153130  56.2922380  51.4880910  76.6193950  56.4269020
  66.4899170  74.7602740  68.4237910  65.8743440  75.2682410  67.8953370
  66.1695590  73.8601070  68.3663850  54.2643680  70.7326110  60.2864780
  53.8211830  71.5135650  59.9549300  54.8228670  71.0556000  60.9935720
  58.5513490  73.5994630  65.8900100  58.0892860  73.8077650  66.7020040
  58.1491600  72.7853980  65.5870770  63.5518000  74.8203580  67.0196760
  62.7011590  74.5209330  67.3405830  63.3919790  75.0645590  66.1080580
  60.6467710  76.3205330  69.1195550  60.9721120  75.4869080  68.7797780
  61.4348040  76.8433850  69.2673880  57.3802500  70.3536810  55.1670610
  56.7556680  70.3496680  55.8923920  57.2932620  69.4867770  54.7706580
  56.3019580  71.2773440  62.1454380  56.5991910  72.1836270  62.0646400
  56.8505140  70.7892220  61.5313950  54.0557900  75.8559680  58.0146030
  53.8298820  75.6396850  58.9192650  53.2750430  76.2888140  57.6692000
  61.2855660  75.8623050  56.6136680  60.6864550  76.5858850  56.4300300
  61.8335270  75.7999830  55.8313130  56.4957110  76.7545260  68.6806300
  56.4000710  75.8139990  68.5306700  57.3389090  76.9760330  68.2854370
  59.8920530  74.4986590  58.6439960  60.2850100  74.8158790  57.8308650
  60.2537380  73.6198470  58.7584480  51.6267650  73.1658930  66.8340080
  51.2331040  74.0134140  67.0412860  50.9386050  72.5285300  67.0248720
  58.2012700  73.2493900  69.9036820  57.5111020  73.0566100  70.5382910
  58.9445000  73.5328540  70.4361120  48.9284700  71.0887390  60.8670160
  48.6397750  71.6590250  61.5795140  49.6730460  70.6091840  61.2301390
  49.1154930  75.0307510  52.0772880  49.0329600  75.9738270  52.2187870
  48.7637990  74.8882420  51.1985230  60.4775670  77.0892340  62.7390740
  59.7456790  77.5979150  63.0880840  60.0800010  76.2722320  62.4379520
  56.9153060  73.7646540  61.1443230  56.9189120  73.3236490  60.2947770
  57.8104180  74.0863870  61.2515050  52.7655440  73.6473030  60.1037440
  52.4255490  74.1248260  60.8604490  52.0032760  73.1938150  59.7438540
  56.9773210  74.7658620  54.1349990  57.0986030  74.7245100  55.0835810
  56.5921720  75.6282770  53.9796720  60.9401580  72.5426020  62.1513680
  60.9574320  72.9934670  62.9955530  60.6917160  71.6431660  62.3647120
  55.9894710  77.0759760  53.5333290  55.4211610  76.6278010  52.9069200
  56.6983710  77.4352540  52.9998440  64.3672330  69.9558200  67.9900060
  64.6918100  69.2247860  68.5158040  64.4028840  69.6371840  67.0881050
  57.2161030  77.8248320  62.8908640  57.5831160  77.3506890  63.6369980
  57.0266090  78.6989890  63.2316980  50.0801520  72.5692010  59.0202110
  49.7948440  72.2047680  59.8580730  50.0180380  71.8372470  58.4065250
  55.0060400  76.8656960  65.2092850  54.7017470  77.7448940  65.4343210
  55.9606860  76.9256750  65.2450290  59.7540110  71.4621270  55.7415480
  58.9404720  70.9634440  55.6660790  59.5602060  72.3019520  55.3251830
  59.6748970  80.1392370  67.4855090  59.6086280  79.2188040  67.2312680
  59.0454110  80.2367810  68.1999730  62.4688500  75.8340920  54.0377640
  63.3568120  76.1458150  53.8628980  62.4393590  74.9613170  53.6458220
  51.0624130  77.7059700  66.3564210  50.7039070  78.3713550  66.9437550
  50.7678690  76.8743250  66.7276830  54.2637250  78.1643940  69.2403760
  53.9637390  78.3101120  68.3431580  55.0348490  77.6049230  69.1477150
  64.7402770  77.1452760  53.5057500  64.6566490  77.5766980  52.6553940
  65.4596960  77.6051110  53.9384320  65.8176910  79.6020280  66.5827470
  65.0925100  80.1949060  66.3856860  66.3452370  79.5943820  65.7840840
  49.5732180  77.7050960  52.9798810  50.4427030  77.9875760  53.2634730
  49.0822500  78.5186830  52.8647620  56.7366990  79.0924170  57.1007090
  57.1929770  79.9029420  57.3267280  56.3855200  78.7747310  57.9325580
  52.6378770  69.4361820  57.5729610  52.5093400  69.4279720  58.5214530
  51.8140790  69.7744910  57.2220620  49.6372700  71.1952940  67.0336310
  48.9231220  71.3949860  67.6388920  50.0567740  70.4192510  67.4051110
  51.5578690  79.5224430  55.1080870  50.9506640  80.2623330  55.1176170
  52.0328040  79.6123790  54.2819070  61.1311480  73.6875250  64.7837760
  61.4992300  72.8670460  65.1117330  60.2709680  73.7477140  65.1993410
  64.4973510  72.6432190  55.5925320  63.8686670  72.7477860  54.8783550
  64.0025430  72.8628970  56.3819200  56.4657540  74.9218140  57.0083200
  55.7573690  75.3904480  57.4496810  56.7502020  74.2640150  57.6428390
  58.0913470  76.3414840  65.0075730  58.5898720  76.8160660  65.6727580
  58.2336420  75.4178360  65.2145760  60.4972970  71.6468800  58.4478990
  60.3740750  71.6654930  57.4988500  61.4457530  71.6947740  58.5677390
  54.6692560  73.2303220  54.3833910  55.5183090  73.6673370  54.3174100
  54.3023830  73.5423480  55.2105970  65.2980330  72.5582800  65.8504120
  64.7953930  73.2988200  66.1897930  66.1136990  72.9466800  65.5340910
  63.5902340  77.8015980  59.2965480  62.6492480  77.8166210  59.4713170
  63.9046410  77.0151940  59.7425780  53.5683980  79.4835580  52.8569440
  54.3347250  79.3716940  53.4194870  53.6458670  78.7873550  52.2046210
  52.2630740  76.9160650  53.5402330  52.3434330  75.9688160  53.6519730
  53.1550490  77.2467530  53.6462990  49.7901540  78.7375570  68.7758500
  50.2940560  78.1582850  69.3474730  49.0508960  79.0215800  69.3134870
  51.8224620  76.8805160  69.6708570  51.8629960  76.5819030  70.5793800
  52.6770120  77.2812770  69.5116090  55.6003010  79.4800710  54.8312080
  56.0219430  79.3140580  55.6743470  55.7253850  78.6700940  54.3367220
  53.7630430  75.4597260  67.6383060  53.2326890  74.9688210  67.0106400
  54.4318500  75.8881460  67.1040990  58.1130650  78.5038320  52.0789180
  58.6336310  77.7887340  51.7130330  58.7599050  79.1424190  52.3789690
  62.6608490  79.9266720  67.4024250  63.0749510  80.0811800  68.2514670
  61.7259490  80.0521940  67.5650030  63.1330660  77.2662880  69.4063400
  63.7151430  76.5115200  69.3183880  63.3092430  77.7970320  68.6294880
  54.2502730  72.4259630  67.7180350  54.1559600  71.8080380  66.9931220
  53.6700120  73.1525920  67.4910260  57.0164170  70.9832870  64.7507740
  56.5681470  71.0057130  63.9053290  56.3829370  70.5851890  65.3478040
  59.7587620  77.6103380  66.7558020  59.8783830  77.0144520  67.4952860
  60.6181620  77.6473070  66.3359320  62.0975520  78.1640570  65.3320530
  61.5710740  78.6883190  64.7285670  62.4406860  78.7967960  65.9630260
  54.4961910  75.5533940  51.7770240  54.2950970  74.6901300  52.1383580
  54.3253960  75.4667300  50.8391840  56.5256390  74.1524730  68.0133840
  57.1156080  73.8440580  68.7011660  55.7076630  73.6804480  68.1693740
  61.3449820  73.7690540  68.2466860  60.6565340  73.1072080  68.1816850
  62.0655840  73.3228810  68.6915320  61.9750220  70.3642170  54.3057120
  62.2552510  69.5210070  54.6616540  61.2015950  70.5965280  54.8195870
  53.2944710  72.6534560  51.7648120  53.5970610  72.6601990  50.8567270
  54.0339300  72.3032420  52.2615780  56.5129640  71.5969180  52.7504320
  56.1651640  70.9193170  52.1706770  56.7142410  71.1358690  53.5647710
  66.3530940  79.6018900  54.9161030  67.1149850  80.1715550  55.0220720
  66.3685310  79.0346100  55.6869340  49.8535280  78.1256830  59.1468690
  49.1984120  77.8568470  58.5028390  50.6913230  78.0161310  58.6970670
  62.8025720  72.9198120  53.3687180  63.2210600  72.7329100  52.5283840
  62.4961780  72.0677170  53.6790110  66.3015450  77.8322260  57.0662980
  65.9259050  77.0650190  56.6344270  65.5718570  78.2144960  57.5537910
  50.8911210  78.5109400  63.6872030  51.2584250  78.4236800  64.5668050
  50.3222030  77.7475950  63.5878890  65.6915070  76.9793780  66.7002500
  65.4601160  76.7506530  65.8000450  65.9519620  77.8993330  66.6547390
  50.4427210  75.4218490  67.5930450  49.5483260  75.3885250  67.9324160
  50.9824760  75.6205280  68.3581700  64.1303140  72.2050210  69.4782200
  65.0073320  72.2133610  69.8616200  64.1423980  71.4681050  68.8674550
  49.0673360  75.3355760  55.0894020  48.1637440  75.5985960  54.9145680
  49.5513980  75.6066930  54.3093980  65.5766410  76.0579750  60.3670220
  66.1003890  75.5642400  59.7360390  66.1625830  76.1930110  61.1117790
  65.7556130  76.1419620  63.8889770  64.8058840  76.1083160  64.0034760
  65.9369140  77.0519730  63.6539540  51.6100570  74.3921300  52.9988400
  52.3192270  73.9704520  52.5135680  50.8940510  74.4596530  52.3671750
  51.2574730  70.4460630  52.0391050  51.9802860  70.9869570  52.3572270
  51.5299250  70.1724050  51.1632590  65.0666380  75.3153100  56.3062630
  65.5625500  75.0823970  57.0911510  64.8682450  74.4764940  55.8900270
  50.9466920  69.6966820  61.9413670  51.5943110  69.1464200  61.5008830
  51.3668760  69.9509970  62.7629480  66.4953540  73.9514050  58.8400310
  66.3852820  73.7970090  59.7782580  67.2561130  73.4234990  58.5975720
  64.8419260  69.8908180  65.2983310  65.4791480  70.5042320  65.6642500
  64.9894150  69.9268840  64.3532540  67.3843810  71.7821970  52.0806450
  68.3093120  71.6503150  51.8724740  67.3619600  71.8614790  53.0342900
  67.4582300  72.5532630  54.7063160  66.6633800  72.4877750  55.2356070
  67.6625580  73.4883270  54.6948510  50.6998920  69.8522490  64.6838990
  50.3513740  70.3086310  65.4497170  50.3686620  68.9579620  64.7661420
  58.2123740  71.0434370  68.2058410  58.1512630  71.6356200  68.9553820
  59.1524120  70.9360330  68.0608670  60.8498300  70.7004430  67.8450700
  61.4638710  71.0183720  67.1831780  61.3947860  70.2153020  68.4646560
  51.3719560  69.3798690  67.9589760  51.9202550  69.1986740  67.1955870
  51.4374870  68.5892800  68.4946070  61.5906340  69.2636570  64.1719990
  60.7166180  69.5971680  63.9692920  61.4817090  68.7909750  64.9971860
  62.4978320  71.4707440  65.5561710  62.1691680  70.6559200  65.1763440
  63.4460620  71.4277250  65.4327400  59.3381160  70.1806410  63.1112900
  58.5552950  70.6551910  63.3909660  59.0444090  69.2761240  63.0026080
  63.8902230  70.8829510  61.1561990  64.3310320  70.8274610  60.3083590
  63.6209820  71.7987520  61.2272170  65.7540800  70.5144750  59.1670810
  65.6929200  69.5705970  59.0201830  66.5332830  70.6224840  59.7124270
  50.6821570  70.4853890  55.6326620  51.4400930  70.5982770  55.0590650
  50.2198740  71.3223090  55.5870050  57.2235380  72.5993160  58.6228930
  56.4109890  72.2250050  58.2824810  57.7277020  71.8438240  58.9250120
  61.7260360  69.2635610  59.8612000  62.3289730  69.8355820  60.3360520
  60.9853350  69.8275050  59.6385900  64.8694960  69.6657170  55.1352280
  65.0645590  70.5640620  55.4019710  64.0824830  69.4344250  55.6285230
  53.0546720  71.0117940  54.1728590  53.5839480  70.2247740  54.0436540
  53.6875040  71.6909130  54.4064120  55.2484560  70.7493080  57.2273980
  54.6187300  70.0480390  57.3944110  54.7089700  71.5097210  57.0107140
  55.3740120  70.0277060  69.6626470  55.0924390  70.5310660  68.8987290
  55.7559820  69.2298810  69.2968600  61.9755580  69.4430640  70.2406940
  61.8621030  69.7625250  71.1358460  62.7925320  69.8443150  69.9444220
  60.8813730  77.4623110  40.6041680  60.8007780  76.5477720  40.3333390
  60.4678150  77.9590180  39.8981390  59.0131770  79.2402130  42.4850950
  58.2373870  78.7602570  42.7749520  59.6644700  78.5607780  42.3107110
  53.0297600  79.5521940  43.3626710  52.1982480  79.2970650  43.7623220
  53.6378580  79.6232710  44.0984630  51.4389550  74.5123830  37.1469100
  50.5506250  74.8539800  37.0448980  51.7230740  74.3124150  36.2549930
  49.4022560  77.1129480  43.0308800  49.9738670  76.3451680  43.0312440
  49.4024100  77.4118240  42.1215410  50.6447430  72.5213840  44.8177730
  50.4650270  71.6239590  45.0980490  50.2427510  73.0685710  45.4924680
  59.4845930  74.7229700  42.7190040  59.8610750  73.8501580  42.6063710
  59.3865440  75.0588400  41.8280480  53.6150940  73.0955330  38.1807480
  53.7217690  73.9959060  38.4876240  52.7043300  73.0473300  37.8902130
  63.2670050  72.2180140  39.6518380  64.0879670  71.7276710  39.6943860
  63.3004130  72.8077800  40.4050220  51.2634100  75.0174340  43.4260070
  51.9444210  75.2812710  44.0447470  50.9482150  74.1775210  43.7598080
  55.4558670  76.0641700  42.5132660  55.9636890  76.5622670  43.1537680
  55.9871910  75.2876900  42.3372020  67.5569600  74.2346890  46.2162010
  66.8521770  74.6228600  45.6977120  67.8227520  74.9297180  46.8182940
  53.7394770  70.7040260  46.7796080  53.7413210  71.2212650  45.9741980
  52.9099080  70.2270440  46.7566010  63.5031530  74.1580520  42.4245920
  62.7987100  74.4465410  43.0049030  63.8643690  74.9680630  42.0645480
  53.4210100  72.4150220  44.7866530  53.7626910  73.2592270  44.4920400
  52.4825910  72.5633960  44.9031870  66.5718450  73.6035310  42.8155130
  65.6243360  73.6374290  42.9470560  66.8968440  74.4174260  43.2004490
  57.1037990  69.9032490  41.1111120  57.4112970  69.3479380  40.3946620
  56.1738690  70.0376950  40.9284110  59.4918750  77.9681320  37.8471240
  58.5648030  77.9018700  38.0759710  59.6443570  78.9061450  37.7326480
  59.4787830  74.2398320  34.8438400  58.5391500  74.4012280  34.9290860
  59.7971090  74.9584000  34.2974390  66.0000590  78.9216840  44.8217430
  65.1719220  78.9909930  44.3467560  66.5951070  79.5071150  44.3533260
  63.5216040  79.5301620  38.3506490  62.9028460  79.1921170  37.7032790
  63.5040490  78.8861380  39.0585680  62.9642600  75.7086160  45.7672300
  62.5513780  76.5339870  46.0212290  62.2318550  75.1231200  45.5748660
  55.0975390  78.4946060  40.6290970  54.6932390  77.7823310  40.1336870
  55.1838510  78.1499300  41.5179010  53.8104010  75.2689270  44.4090010
  54.3618600  75.3784610  43.6343260  54.3247520  75.6426870  45.1245240
  61.6980740  78.7688430  35.3579240  62.1374020  77.9310860  35.2117060
  62.4109160  79.4017830  35.4443380  53.4846740  78.7908630  48.0195350
  53.3454510  79.6631430  48.3882750  52.6028100  78.4481440  47.8743290
  65.2797880  70.0231240  33.6720280  64.9670540  70.1158070  34.5719350
  66.0410350  70.6012270  33.6217710  51.7980020  77.3891040  38.1297620
  51.6777620  78.1153130  37.5178890  51.4880910  76.6193950  37.6525530
  66.4899170  74.7602740  49.6494420  65.8743440  75.2682410  49.1209880
  66.1695590  73.8601070  49.5920360  54.2643680  70.7326110  41.5121290
  53.8211830  71.5135650  41.1805810  54.8228670  71.0556000  42.2192230
  58.5513490  73.5994630  47.1156610  58.0892860  73.8077650  47.9276550
  58.1491600  72.7853980  46.8127280  63.5518000  74.8203580  48.2453270
  62.7011590  74.5209330  48.5662340  63.3919790  75.0645590  47.3337090
  60.6467710  76.3205330  50.3452060  60.9721120  75.4869080  50.0054290
  61.4348040  76.8433850  50.4930390  57.3802500  70.3536810  36.3927120
  56.7556680  70.3496680  37.1180430  57.2932620  69.4867770  35.9963090
  56.3019580  71.2773440  43.3710890  56.5991910  72.1836270  43.2902910
  56.8505140  70.7892220  42.7570460  54.0557900  75.8559680  39.2402540
  53.8298820  75.6396850  40.1449160  53.2750430  76.2888140  38.8948510
  61.2855660  75.8623050  37.8393190  60.6864550  76.5858850  37.6556810
  61.8335270  75.7999830  37.0569640  56.4957110  76.7545260  49.9062810
  56.4000710  75.8139990  49.7563210  57.3389090  76.9760330  49.5110880
  59.8920530  74.4986590  39.8696470  60.2850100  74.8158790  39.0565160
  60.2537380  73.6198470  39.9840990  51.6267650  73.1658930  48.0596590
  51.2331040  74.0134140  48.2669370  50.9386050  72.5285300  48.2505230
  58.2012700  73.2493900  51.1293330  57.5111020  73.0566100  51.7639420
  58.9445000  73.5328540  51.6617630  48.9284700  71.0887390  42.0926670
  48.6397750  71.6590250  42.8051650  49.6730460  70.6091840  42.4557900
  49.1154930  75.0307510  33.3029390  49.0329600  75.9738270  33.4444380
  48.7637990  74.8882420  32.4241740  60.4775670  77.0892340  43.9647250
  59.7456790  77.5979150  44.3137350  60.0800010  76.2722320  43.6636030
  56.9153060  73.7646540  42.3699740  56.9189120  73.3236490  41.5204280
  57.8104180  74.0863870  42.4771560  52.7655440  73.6473030  41.3293950
  52.4255490  74.1248260  42.0861000  52.0032760  73.1938150  40.9695050
  56.9773210  74.7658620  35.3606500  57.0986030  74.7245100  36.3092320
  56.5921720  75.6282770  35.2053230  60.9401580  72.5426020  43.3770190
  60.9574320  72.9934670  44.2212040  60.6917160  71.6431660  43.5903630
  55.9894710  77.0759760  34.7589800  55.4211610  76.6278010  34.1325710
  56.6983710  77.4352540  34.2254950  64.3672330  69.9558200  49.2156570
  64.6918100  69.2247860  49.7414550  64.4028840  69.6371840  48.3137560
  57.2161030  77.8248320  44.1165150  57.5831160  77.3506890  44.8626490
  57.0266090  78.6989890  44.4573490  50.0801520  72.5692010  40.2458620
  49.7948440  72.2047680  41.0837240  50.0180380  71.8372470  39.6321760
  55.0060400  76.8656960  46.4349360  54.7017470  77.7448940  46.6599720
  55.9606860  76.9256750  46.4706800  59.7540110  71.4621270  36.9671990
  58.9404720  70.9634440  36.8917300  59.5602060  72.3019520  36.5508340
  59.6748970  80.1392370  48.7111600  59.6086280  79.2188040  48.4569190
  59.0454110  80.2367810  49.4256240  62.4688500  75.8340920  35.2634150
  63.3568120  76.1458150  35.0885490  62.4393590  74.9613170  34.8714730
  51.0624130  77.7059700  47.5820720  50.7039070  78.3713550  48.1694060
  50.7678690  76.8743250  47.9533340  54.2637250  78.1643940  50.4660270
  53.9637390  78.3101120  49.5688090  55.0348490  77.6049230  50.3733660
  64.7402770  77.1452760  34.7314010  64.6566490  77.5766980  33.8810450
  65.4596960  77.6051110  35.1640830  65.8176910  79.6020280  47.8083980
  65.0925100  80.1949060  47.6113370  66.3452370  79.5943820  47.0097350
  49.5732180  77.7050960  34.2055320  50.4427030  77.9875760  34.4891240
  49.0822500  78.5186830  34.0904130  56.7366990  79.0924170  38.3263600
  57.1929770  79.9029420  38.5523790  56.3855200  78.7747310  39.1582090
  52.6378770  69.4361820  38.7986120  52.5093400  69.4279720  39.7471040
  51.8140790  69.7744910  38.4477130  49.6372700  71.1952940  48.2592820
  48.9231220  71.3949860  48.8645430  50.0567740  70.4192510  48.6307620
  51.5578690  79.5224430  36.3337380  50.9506640  80.2623330  36.3432680
  52.0328040  79.6123790  35.5075580  61.1311480  73.6875250  46.0094270
  61.4992300  72.8670460  46.3373840  60.2709680  73.7477140  46.4249920
  64.4973510  72.6432190  36.8181830  63.8686670  72.7477860  36.1040060
  64.0025430  72.8628970  37.6075710  56.4657540  74.9218140  38.2339710
  55.7573690  75.3904480  38.6753320  56.7502020  74.2640150  38.8684900
  58.0913470  76.3414840  46.2332240  58.5898720  76.8160660  46.8984090
  58.2336420  75.4178360  46.4402270  60.4972970  71.6468800  39.6735500
  60.3740750  71.6654930  38.7245010  61.4457530  71.6947740  39.7933900
  54.6692560  73.2303220  35.6090420  55.5183090  73.6673370  35.5430610
  54.3023830  73.5423480  36.4362480  65.2980330  72.5582800  47.0760630
  64.7953930  73.2988200  47.4154440  66.1136990  72.9466800  46.7597420
  63.5902340  77.8015980  40.5221990  62.6492480  77.8166210  40.6969680
  63.9046410  77.0151940  40.9682290  53.5683980  79.4835580  34.0825950
  54.3347250  79.3716940  34.6451380  53.6458670  78.7873550  33.4302720
  52.2630740  76.9160650  34.7658840  52.3434330  75.9688160  34.8776240
  53.1550490  77.2467530  34.8719500  49.7901540  78.7375570  50.0015010
  50.2940560  78.1582850  50.5731240  49.0508960  79.0215800  50.5391380
  51.8224620  76.8805160  50.8965080  51.8629960  76.5819030  51.8050310
  52.6770120  77.2812770  50.7372600  55.6003010  79.4800710  36.0568590
  56.0219430  79.3140580  36.8999980  55.7253850  78.6700940  35.5623730
  53.7630430  75.4597260  48.8639570  53.2326890  74.9688210  48.2362910
  54.4318500  75.8881460  48.3297500  58.1130650  78.5038320  33.3045690
  58.6336310  77.7887340  32.9386840  58.7599050  79.1424190  33.6046200
  62.6608490  79.9266720  48.6280760  63.0749510  80.0811800  49.4771180
  61.7259490  80.0521940  48.7906540  63.1330660  77.2662880  50.6319910
  63.7151430  76.5115200  50.5440390  63.3092430  77.7970320  49.8551390
  54.2502730  72.4259630  48.9436860  54.1559600  71.8080380  48.2187730
  53.6700120  73.1525920  48.7166770  57.0164170  70.9832870  45.9764250
  56.5681470  71.0057130  45.1309800  56.3829370  70.5851890  46.5734550
  59.7587620  77.6103380  47.9814530  59.8783830  77.0144520  48.7209370
  60.6181620  77.6473070  47.5615830  62.0975520  78.1640570  46.5577040
  61.5710740  78.6883190  45.9542180  62.4406860  78.7967960  47.1886770
  54.4961910  75.5533940  33.0026750  54.2950970  74.6901300  33.3640090
  54.3253960  75.4667300  32.0648350  56.5256390  74.1524730  49.2390350
  57.1156080  73.8440580  49.9268170  55.7076630  73.6804480  49.3950250
  61.3449820  73.7690540  49.4723370  60.6565340  73.1072080  49.4073360
  62.0655840  73.3228810  49.9171830  61.9750220  70.3642170  35.5313630
  62.2552510  69.5210070  35.8873050  61.2015950  70.5965280  36.0452380
  53.2944710  72.6534560  32.9904630  53.5970610  72.6601990  32.0823780
  54.0339300  72.3032420  33.4872290  56.5129640  71.5969180  33.9760830
  56.1651640  70.9193170  33.3963280  56.7142410  71.1358690  34.7904220
  66.3530940  79.6018900  36.1417540  67.1149850  80.1715550  36.2477230
  66.3685310  79.0346100  36.9125850  49.8535280  78.1256830  40.3725200
  49.1984120  77.8568470  39.7284900  50.6913230  78.0161310  39.9227180
  62.8025720  72.9198120  34.5943690  63.2210600  72.7329100  33.7540350
  62.4961780  72.0677170  34.9046620  66.3015450  77.8322260  38.2919490
  65.9259050  77.0650190  37.8600780  65.5718570  78.2144960  38.7794420
  50.8911210  78.5109400  44.9128540  51.2584250  78.4236800  45.7924560
  50.3222030  77.7475950  44.8135400  65.6915070  76.9793780  47.9259010
  65.4601160  76.7506530  47.0256960  65.9519620  77.8993330  47.8803900
  50.4427210  75.4218490  48.8186960  49.5483260  75.3885250  49.1580670
  50.9824760  75.6205280  49.5838210  64.1303140  72.2050210  50.7038710
  65.0073320  72.2133610  51.0872710  64.1423980  71.4681050  50.0931060
  49.0673360  75.3355760  36.3150530  48.1637440  75.5985960  36.1402190
  49.5513980  75.6066930  35.5350490  65.5766410  76.0579750  41.5926730
  66.1003890  75.5642400  40.9616900  66.1625830  76.1930110  42.3374300
  65.7556130  76.1419620  45.1146280  64.8058840  76.1083160  45.2291270
  65.9369140  77.0519730  44.8796050  51.6100570  74.3921300  34.2244910
  52.3192270  73.9704520  33.7392190  50.8940510  74.4596530  33.5928260
  51.2574730  70.4460630  33.2647560  51.9802860  70.9869570  33.5828780
  51.5299250  70.1724050  32.3889100  65.0666380  75.3153100  37.5319140
  65.5625500  75.0823970  38.3168020  64.8682450  74.4764940  37.1156780
  50.9466920  69.6966820  43.1670180  51.5943110  69.1464200  42.7265340
  51.3668760  69.9509970  43.9885990  66.4953540  73.9514050  40.0656820
  66.3852820  73.7970090  41.0039090  67.2561130  73.4234990  39.8232230
  64.8419260  69.8908180  46.5239820  65.4791480  70.5042320  46.8899010
  64.9894150  69.9268840  45.5789050  67.3843810  71.7821970  33.3062960
  68.3093120  71.6503150  33.0981250  67.3619600  71.8614790  34.2599410
  67.4582300  72.5532630  35.9319670  66.6633800  72.4877750  36.4612580
  67.6625580  73.4883270  35.9205020  50.6998920  69.8522490  45.9095500
  50.3513740  70.3086310  46.6753680  50.3686620  68.9579620  45.9917930
  58.2123740  71.0434370  49.4314920  58.1512630  71.6356200  50.1810330
  59.1524120  70.9360330  49.2865180  60.8498300  70.7004430  49.0707210
  61.4638710  71.0183720  48.4088290  61.3947860  70.2153020  49.6903070
  51.3719560  69.3798690  49.1846270  51.9202550  69.1986740  48.4212380
  51.4374870  68.5892800  49.7202580  61.5906340  69.2636570  45.3976500
  60.7166180  69.5971680  45.1949430  61.4817090  68.7909750  46.2228370
  62.4978320  71.4707440  46.7818220  62.1691680  70.6559200  46.4019950
  63.4460620  71.4277250  46.6583910  59.3381160  70.1806410  44.3369410
  58.5552950  70.6551910  44.6166170  59.0444090  69.2761240  44.2282590
  63.8902230  70.8829510  42.3818500  64.3310320  70.8274610  41.5340100
  63.6209820  71.7987520  42.4528680  65.7540800  70.5144750  40.3927320
  65.6929200  69.5705970  40.2458340  66.5332830  70.6224840  40.9380780
  50.6821570  70.4853890  36.8583130  51.4400930  70.5982770  36.2847160
  50.2198740  71.3223090  36.8126560  57.2235380  72.5993160  39.8485440
  56.4109890  72.2250050  39.5081320  57.7277020  71.8438240  40.1506630
  61.7260360  69.2635610  41.0868510  62.3289730  69.8355820  41.5617030
  60.9853350  69.8275050  40.8642410  64.8694960  69.6657170  36.3608790
  65.0645590  70.5640620  36.6276220  64.0824830  69.4344250  36.8541740
  53.0546720  71.0117940  35.3985100  53.5839480  70.2247740  35.2693050
  53.6875040  71.6909130  35.6320630  55.2484560  70.7493080  38.4530490
  54.6187300  70.0480390  38.6200620  54.7089700  71.5097210  38.2363650
  55.3740120  70.0277060  50.8882980  55.0924390  70.5310660  50.1243800
  55.7559820  69.2298810  50.5225110  61.9755580  69.4430640  51.4663450
  61.8621030  69.7625250  52.3614970  62.7925320  69.8443150  51.1700730
  60.8813730  77.4623110  21.8298190  60.8007780  76.5477720  21.5589900
  60.4678150  77.9590180  21.1237900  59.0131770  79.2402130  23.7107460
  58.2373870  78.7602570  24.0006030  59.6644700  78.5607780  23.5363620
  53.0297600  79.5521940  24.5883220  52.1982480  79.2970650  24.9879730
  53.6378580  79.6232710  25.3241140  51.4389550  74.5123830  18.3725610
  50.5506250  74.8539800  18.2705490  51.7230740  74.3124150  17.4806440
  49.4022560  77.1129480  24.2565310  49.9738670  76.3451680  24.2568950
  49.4024100  77.4118240  23.3471920  50.6447430  72.5213840  26.0434240
  50.4650270  71.6239590  26.3237000  50.2427510  73.0685710  26.7181190
  59.4845930  74.7229700  23.9446550  59.8610750  73.8501580  23.8320220
  59.3865440  75.0588400  23.0536990  53.6150940  73.0955330  19.4063990
  53.7217690  73.9959060  19.7132750  52.7043300  73.0473300  19.1158640
  63.2670050  72.2180140  20.8774890  64.0879670  71.7276710  20.9200370
  63.3004130  72.8077800  21.6306730  51.2634100  75.0174340  24.6516580
  51.9444210  75.2812710  25.2703980  50.9482150  74.1775210  24.9854590
  55.4558670  76.0641700  23.7389170  55.9636890  76.5622670  24.3794190
  55.9871910  75.2876900  23.5628530  67.5569600  74.2346890  27.4418520
  66.8521770  74.6228600  26.9233630  67.8227520  74.9297180  28.0439450
  53.7394770  70.7040260  28.0052590  53.7413210  71.2212650  27.1998490
  52.9099080  70.2270440  27.9822520  63.5031530  74.1580520  23.6502430
  62.7987100  74.4465410  24.2305540  63.8643690  74.9680630  23.2901990
  53.4210100  72.4150220  26.0123040  53.7626910  73.2592270  25.7176910
  52.4825910  72.5633960  26.1288380  66.5718450  73.6035310  24.0411640
  65.6243360  73.6374290  24.1727070  66.8968440  74.4174260  24.4261000
  57.1037990  69.9032490  22.3367630  57.4112970  69.3479380  21.6203130
  56.1738690  70.0376950  22.1540620  59.4918750  77.9681320  19.0727750
  58.5648030  77.9018700  19.3016220  59.6443570  78.9061450  18.9582990
  59.4787830  74.2398320  16.0694910  58.5391500  74.4012280  16.1547370
  59.7971090  74.9584000  15.5230900  66.0000590  78.9216840  26.0473940
  65.1719220  78.9909930  25.5724070  66.5951070  79.5071150  25.5789770
  63.5216040  79.5301620  19.5763000  62.9028460  79.1921170  18.9289300
  63.5040490  78.8861380  20.2842190  62.9642600  75.7086160  26.9928810
  62.5513780  76.5339870  27.2468800  62.2318550  75.1231200  26.8005170
  55.0975390  78.4946060  21.8547480  54.6932390  77.7823310  21.3593380
  55.1838510  78.1499300  22.7435520  53.8104010  75.2689270  25.6346520
  54.3618600  75.3784610  24.8599770  54.3247520  75.6426870  26.3501750
  61.6980740  78.7688430  16.5835750  62.1374020  77.9310860  16.4373570
  62.4109160  79.4017830  16.6699890  53.4846740  78.7908630  29.2451860
  53.3454510  79.6631430  29.6139260  52.6028100  78.4481440  29.0999800
  65.2797880  70.0231240  14.8976790  64.9670540  70.1158070  15.7975860
  66.0410350  70.6012270  14.8474220  51.7980020  77.3891040  19.3554130
  51.6777620  78.1153130  18.7435400  51.4880910  76.6193950  18.8782040
  66.4899170  74.7602740  30.8750930  65.8743440  75.2682410  30.3466390
  66.1695590  73.8601070  30.8176870  54.2643680  70.7326110  22.7377800
  53.8211830  71.5135650  22.4062320  54.8228670  71.0556000  23.4448740
  58.5513490  73.5994630  28.3413120  58.0892860  73.8077650  29.1533060
  58.1491600  72.7853980  28.0383790  63.5518000  74.8203580  29.4709780
  62.7011590  74.5209330  29.7918850  63.3919790  75.0645590  28.5593600
  60.6467710  76.3205330  31.5708570  60.9721120  75.4869080  31.2310800
  61.4348040  76.8433850  31.7186900  57.3802500  70.3536810  17.6183630
  56.7556680  70.3496680  18.3436940  57.2932620  69.4867770  17.2219600
  56.3019580  71.2773440  24.5967400  56.5991910  72.1836270  24.5159420
  56.8505140  70.7892220  23.9826970  54.0557900  75.8559680  20.4659050
  53.8298820  75.6396850  21.3705670  53.2750430  76.2888140  20.1205020
  61.2855660  75.8623050  19.0649700  60.6864550  76.5858850  18.8813320
  61.8335270  75.7999830  18.2826150  56.4957110  76.7545260  31.1319320
  56.4000710  75.8139990  30.9819720  57.3389090  76.9760330  30.7367390
  59.8920530  74.4986590  21.0952980  60.2850100  74.8158790  20.2821670
  60.2537380  73.6198470  21.2097500  51.6267650  73.1658930  29.2853100
  51.2331040  74.0134140  29.4925880  50.9386050  72.5285300  29.4761740
  58.2012700  73.2493900  32.3549840  57.5111020  73.0566100  32.9895930
  58.9445000  73.5328540  32.8874140  48.9284700  71.0887390  23.3183180
  48.6397750  71.6590250  24.0308160  49.6730460  70.6091840  23.6814410
  49.1154930  75.0307510  14.5285900  49.0329600  75.9738270  14.6700890
  48.7637990  74.8882420  13.6498250  60.4775670  77.0892340  25.1903760
  59.7456790  77.5979150  25.5393860  60.0800010  76.2722320  24.8892540
  56.9153060  73.7646540  23.5956250  56.9189120  73.3236490  22.7460790
  57.8104180  74.0863870  23.7028070  52.7655440  73.6473030  22.5550460
  52.4255490  74.1248260  23.3117510  52.0032760  73.1938150  22.1951560
  56.9773210  74.7658620  16.5863010  57.0986030  74.7245100  17.5348830
  56.5921720  75.6282770  16.4309740  60.9401580  72.5426020  24.6026700
  60.9574320  72.9934670  25.4468550  60.6917160  71.6431660  24.8160140
  55.9894710  77.0759760  15.9846310  55.4211610  76.6278010  15.3582220
  56.6983710  77.4352540  15.4511460  64.3672330  69.9558200  30.4413080
  64.6918100  69.2247860  30.9671060  64.4028840  69.6371840  29.5394070
  57.2161030  77.8248320  25.3421660  57.5831160  77.3506890  26.0883000
  57.0266090  78.6989890  25.6830000  50.0801520  72.5692010  21.4715130
  49.7948440  72.2047680  22.3093750  50.0180380  71.8372470  20.8578270
  55.0060400  76.8656960  27.6605870  54.7017470  77.7448940  27.8856230
  55.9606860  76.9256750  27.6963310  59.7540110  71.4621270  18.1928500
  58.9404720  70.9634440  18.1173810  59.5602060  72.3019520  17.7764850
  59.6748970  80.1392370  29.9368110  59.6086280  79.2188040  29.6825700
  59.0454110  80.2367810  30.6512750  62.4688500  75.8340920  16.4890660
  63.3568120  76.1458150  16.3142000  62.4393590  74.9613170  16.0971240
  51.0624130  77.7059700  28.8077230  50.7039070  78.3713550  29.3950570
  50.7678690  76.8743250  29.1789850  54.2637250  78.1643940  31.6916780
  53.9637390  78.3101120  30.7944600  55.0348490  77.6049230  31.5990170
  64.7402770  77.1452760  15.9570520  64.6566490  77.5766980  15.1066960
  65.4596960  77.6051110  16.3897340  65.8176910  79.6020280  29.0340490
  65.0925100  80.1949060  28.8369880  66.3452370  79.5943820  28.2353860
  49.5732180  77.7050960  15.4311830  50.4427030  77.9875760  15.7147750
  49.0822500  78.5186830  15.3160640  56.7366990  79.0924170  19.5520110
  57.1929770  79.9029420  19.7780300  56.3855200  78.7747310  20.3838600
  52.6378770  69.4361820  20.0242630  52.5093400  69.4279720  20.9727550
  51.8140790  69.7744910  19.6733640  49.6372700  71.1952940  29.4849330
  48.9231220  71.3949860  30.0901940  50.0567740  70.4192510  29.8564130
  51.5578690  79.5224430  17.5593890  50.9506640  80.2623330  17.5689190
  52.0328040  79.6123790  16.7332090  61.1311480  73.6875250  27.2350780
  61.4992300  72.8670460  27.5630350  60.2709680  73.7477140  27.6506430
  64.4973510  72.6432190  18.0438340  63.8686670  72.7477860  17.3296570
  64.0025430  72.8628970  18.8332220  56.4657540  74.9218140  19.4596220
  55.7573690  75.3904480  19.9009830  56.7502020  74.2640150  20.0941410
  58.0913470  76.3414840  27.4588750  58.5898720  76.8160660  28.1240600
  58.2336420  75.4178360  27.6658780  60.4972970  71.6468800  20.8992010
  60.3740750  71.6654930  19.9501520  61.4457530  71.6947740  21.0190410
  54.6692560  73.2303220  16.8346930  55.5183090  73.6673370  16.7687120
  54.3023830  73.5423480  17.6618990  65.2980330  72.5582800  28.3017140
  64.7953930  73.2988200  28.6410950  66.1136990  72.9466800  27.9853930
  63.5902340  77.8015980  21.7478500  62.6492480  77.8166210  21.9226190
  63.9046410  77.0151940  22.1938800  53.5683980  79.4835580  15.3082460
  54.3347250  79.3716940  15.8707890  53.6458670  78.7873550  14.6559230
  52.2630740  76.9160650  15.9915350  52.3434330  75.9688160  16.1032750
  53.1550490  77.2467530  16.0976010  49.7901540  78.7375570  31.2271520
  50.2940560  78.1582850  31.7987750  49.0508960  79.0215800  31.7647890
  51.8224620  76.8805160  32.1221590  51.8629960  76.5819030  33.0306820
  52.6770120  77.2812770  31.9629110  55.6003010  79.4800710  17.2825100
  56.0219430  79.3140580  18.1256490  55.7253850  78.6700940  16.7880240
  53.7630430  75.4597260  30.0896080  53.2326890  74.9688210  29.4619420
  54.4318500  75.8881460  29.5554010  58.1130650  78.5038320  14.5302200
  58.6336310  77.7887340  14.1643350  58.7599050  79.1424190  14.8302710
  62.6608490  79.9266720  29.8537270  63.0749510  80.0811800  30.7027690
  61.7259490  80.0521940  30.0163050  63.1330660  77.2662880  31.8576420
  63.7151430  76.5115200  31.7696900  63.3092430  77.7970320  31.0807900
  54.2502730  72.4259630  30.1693370  54.1559600  71.8080380  29.4444240
  53.6700120  73.1525920  29.9423280  57.0164170  70.9832870  27.2020760
  56.5681470  71.0057130  26.3566310  56.3829370  70.5851890  27.7991060
  59.7587620  77.6103380  29.2071040  59.8783830  77.0144520  29.9465880
  60.6181620  77.6473070  28.7872340  62.0975520  78.1640570  27.7833550
  61.5710740  78.6883190  27.1798690  62.4406860  78.7967960  28.4143280
  54.4961910  75.5533940  14.2283260  54.2950970  74.6901300  14.5896600
  54.3253960  75.4667300  13.2904860  56.5256390  74.1524730  30.4646860
  57.1156080  73.8440580  31.1524680  55.7076630  73.6804480  30.6206760
  61.3449820  73.7690540  30.6979880  60.6565340  73.1072080  30.6329870
  62.0655840  73.3228810  31.1428340  61.9750220  70.3642170  16.7570140
  62.2552510  69.5210070  17.1129560  61.2015950  70.5965280  17.2708890
  53.2944710  72.6534560  14.2161140  53.5970610  72.6601990  13.3080290
  54.0339300  72.3032420  14.7128800  56.5129640  71.5969180  15.2017340
  56.1651640  70.9193170  14.6219790  56.7142410  71.1358690  16.0160730
  66.3530940  79.6018900  17.3674050  67.1149850  80.1715550  17.4733740
  66.3685310  79.0346100  18.1382360  49.8535280  78.1256830  21.5981710
  49.1984120  77.8568470  20.9541410  50.6913230  78.0161310  21.1483690
  62.8025720  72.9198120  15.8200200  63.2210600  72.7329100  14.9796860
  62.4961780  72.0677170  16.1303130  66.3015450  77.8322260  19.5176000
  65.9259050  77.0650190  19.0857290  65.5718570  78.2144960  20.0050930
  50.8911210  78.5109400  26.1385050  51.2584250  78.4236800  27.0181070
  50.3222030  77.7475950  26.0391910  65.6915070  76.9793780  29.1515520
  65.4601160  76.7506530  28.2513470  65.9519620  77.8993330  29.1060410
  50.4427210  75.4218490  30.0443470  49.5483260  75.3885250  30.3837180
  50.9824760  75.6205280  30.8094720  64.1303140  72.2050210  31.9295220
  65.0073320  72.2133610  32.3129220  64.1423980  71.4681050  31.3187570
  49.0673360  75.3355760  17.5407040  48.1637440  75.5985960  17.3658700
  49.5513980  75.6066930  16.7607000  65.5766410  76.0579750  22.8183240
  66.1003890  75.5642400  22.1873410  66.1625830  76.1930110  23.5630810
  65.7556130  76.1419620  26.3402790  64.8058840  76.1083160  26.4547780
  65.9369140  77.0519730  26.1052560  51.6100570  74.3921300  15.4501420
  52.3192270  73.9704520  14.9648700  50.8940510  74.4596530  14.8184770
  51.2574730  70.4460630  14.4904070  51.9802860  70.9869570  14.8085290
  51.5299250  70.1724050  13.6145610  65.0666380  75.3153100  18.7575650
  65.5625500  75.0823970  19.5424530  64.8682450  74.4764940  18.3413290
  50.9466920  69.6966820  24.3926690  51.5943110  69.1464200  23.9521850
  51.3668760  69.9509970  25.2142500  66.4953540  73.9514050  21.2913330
  66.3852820  73.7970090  22.2295600  67.2561130  73.4234990  21.0488740
  64.8419260  69.8908180  27.7496330  65.4791480  70.5042320  28.1155520
  64.9894150  69.9268840  26.8045560  67.3843810  71.7821970  14.5319470
  68.3093120  71.6503150  14.3237760  67.3619600  71.8614790  15.4855920
  67.4582300  72.5532630  17.1576180  66.6633800  72.4877750  17.6869090
  67.6625580  73.4883270  17.1461530  50.6998920  69.8522490  27.1352010
  50.3513740  70.3086310  27.9010190  50.3686620  68.9579620  27.2174440
  58.2123740  71.0434370  30.6571430  58.1512630  71.6356200  31.4066840
  59.1524120  70.9360330  30.5121690  60.8498300  70.7004430  30.2963720
  61.4638710  71.0183720  29.6344800  61.3947860  70.2153020  30.9159580
  51.3719560  69.3798690  30.4102780  51.9202550  69.1986740  29.6468890
  51.4374870  68.5892800  30.9459090  61.5906340  69.2636570  26.6233010
  60.7166180  69.5971680  26.4205940  61.4817090  68.7909750  27.4484880
  62.4978320  71.4707440  28.0074730  62.1691680  70.6559200  27.6276460
  63.4460620  71.4277250  27.8840420  59.3381160  70.1806410  25.5625920
  58.5552950  70.6551910  25.8422680  59.0444090  69.2761240  25.4539100
  63.8902230  70.8829510  23.6075010  64.3310320  70.8274610  22.7596610
  63.6209820  71.7987520  23.6785190  65.7540800  70.5144750  21.6183830
  65.6929200  69.5705970  21.4714850  66.5332830  70.6224840  22.1637290
  50.6821570  70.4853890  18.0839640  51.4400930  70.5982770  17.5103670
  50.2198740  71.3223090  18.0383070  57.2235380  72.5993160  21.0741950
  56.4109890  72.2250050  20.7337830  57.7277020  71.8438240  21.3763140
  61.7260360  69.2635610  22.3125020  62.3289730  69.8355820  22.7873540
  60.9853350  69.8275050  22.0898920  64.8694960  69.6657170  17.5865300
  65.0645590  70.5640620  17.8532730  64.0824830  69.4344250  18.0798250
  53.0546720  71.0117940  16.6241610  53.5839480  70.2247740  16.4949560
  53.6875040  71.6909130  16.8577140  55.2484560  70.7493080  19.6787000
  54.6187300  70.0480390  19.8457130  54.7089700  71.5097210  19.4620160
  61.9755580  69.4430640  32.6919960  61.8621030  69.7625250  33.5871480
  62.7925320  69.8443150  32.3957240  60.8813730  77.4623110   3.0554700
  60.8007780  76.5477720   2.7846410  60.4678150  77.9590180   2.3494410
  59.0131770  79.2402130   4.9363970  58.2373870  78.7602570   5.2262540
  59.6644700  78.5607780   4.7620130  53.0297600  79.5521940   5.8139730
  52.1982480  79.2970650   6.2136240  53.6378580  79.6232710   6.5497650
  49.4022560  77.1129480   5.4821820  49.9738670  76.3451680   5.4825460
  49.4024100  77.4118240   4.5728430  50.6447430  72.5213840   7.2690750
  50.4650270  71.6239590   7.5493510  50.2427510  73.0685710   7.9437700
  59.4845930  74.7229700   5.1703060  59.8610750  73.8501580   5.0576730
  59.3865440  75.0588400   4.2793500  63.2670050  72.2180140   2.1031400
  64.0879670  71.7276710   2.1456880  63.3004130  72.8077800   2.8563240
  51.2634100  75.0174340   5.8773090  51.9444210  75.2812710   6.4960490
  50.9482150  74.1775210   6.2111100  55.4558670  76.0641700   4.9645680
  55.9636890  76.5622670   5.6050700  55.9871910  75.2876900   4.7885040
  67.5569600  74.2346890   8.6675030  66.8521770  74.6228600   8.1490140
  67.8227520  74.9297180   9.2695960  53.7394770  70.7040260   9.2309100
  53.7413210  71.2212650   8.4255000  52.9099080  70.2270440   9.2079030
  63.5031530  74.1580520   4.8758940  62.7987100  74.4465410   5.4562050
  63.8643690  74.9680630   4.5158500  53.4210100  72.4150220   7.2379550
  53.7626910  73.2592270   6.9433420  52.4825910  72.5633960   7.3544890
  66.5718450  73.6035310   5.2668150  65.6243360  73.6374290   5.3983580
  66.8968440  74.4174260   5.6517510  57.1037990  69.9032490   3.5624140
  57.4112970  69.3479380   2.8459640  56.1738690  70.0376950   3.3797130
  66.0000590  78.9216840   7.2730450  65.1719220  78.9909930   6.7980580
  66.5951070  79.5071150   6.8046280  62.9642600  75.7086160   8.2185320
  62.5513780  76.5339870   8.4725310  62.2318550  75.1231200   8.0261680
  55.0975390  78.4946060   3.0803990  54.6932390  77.7823310   2.5849890
  55.1838510  78.1499300   3.9692030  53.8104010  75.2689270   6.8603030
  54.3618600  75.3784610   6.0856280  54.3247520  75.6426870   7.5758260
  53.4846740  78.7908630  10.4708370  53.3454510  79.6631430  10.8395770
  52.6028100  78.4481440  10.3256310  66.4899170  74.7602740  12.1007440
  65.8743440  75.2682410  11.5722900  66.1695590  73.8601070  12.0433380
  54.2643680  70.7326110   3.9634310  53.8211830  71.5135650   3.6318830
  54.8228670  71.0556000   4.6705250  58.5513490  73.5994630   9.5669630
  58.0892860  73.8077650  10.3789570  58.1491600  72.7853980   9.2640300
  63.5518000  74.8203580  10.6966290  62.7011590  74.5209330  11.0175360
  63.3919790  75.0645590   9.7850110  60.6467710  76.3205330  12.7965080
  60.9721120  75.4869080  12.4567310  61.4348040  76.8433850  12.9443410
  56.3019580  71.2773440   5.8223910  56.5991910  72.1836270   5.7415930
  56.8505140  70.7892220   5.2083480  56.4957110  76.7545260  12.3575830
  56.4000710  75.8139990  12.2076230  57.3389090  76.9760330  11.9623900
  51.6267650  73.1658930  10.5109610  51.2331040  74.0134140  10.7182390
  50.9386050  72.5285300  10.7018250  58.2012700  73.2493900  13.5806350
  57.5111020  73.0566100  14.2152440  58.9445000  73.5328540  14.1130650
  48.9284700  71.0887390   4.5439690  48.6397750  71.6590250   5.2564670
  49.6730460  70.6091840   4.9070920  60.4775670  77.0892340   6.4160270
  59.7456790  77.5979150   6.7650370  60.0800010  76.2722320   6.1149050
  56.9153060  73.7646540   4.8212760  56.9189120  73.3236490   3.9717300
  57.8104180  74.0863870   4.9284580  52.7655440  73.6473030   3.7806970
  52.4255490  74.1248260   4.5374020  52.0032760  73.1938150   3.4208070
  60.9401580  72.5426020   5.8283210  60.9574320  72.9934670   6.6725060
  60.6917160  71.6431660   6.0416650  64.3672330  69.9558200  11.6669590
  64.6918100  69.2247860  12.1927570  64.4028840  69.6371840  10.7650580
  57.2161030  77.8248320   6.5678170  57.5831160  77.3506890   7.3139510
  57.0266090  78.6989890   6.9086510  50.0801520  72.5692010   2.6971640
  49.7948440  72.2047680   3.5350260  50.0180380  71.8372470   2.0834780
  55.0060400  76.8656960   8.8862380  54.7017470  77.7448940   9.1112740
  55.9606860  76.9256750   8.9219820  59.6748970  80.1392370  11.1624620
  59.6086280  79.2188040  10.9082210  59.0454110  80.2367810  11.8769260
  51.0624130  77.7059700  10.0333740  50.7039070  78.3713550  10.6207080
  50.7678690  76.8743250  10.4046360  54.2637250  78.1643940  12.9173290
  53.9637390  78.3101120  12.0201110  55.0348490  77.6049230  12.8246680
  65.8176910  79.6020280  10.2597000  65.0925100  80.1949060  10.0626390
  66.3452370  79.5943820   9.4610370  49.6372700  71.1952940  10.7105840
  48.9231220  71.3949860  11.3158450  50.0567740  70.4192510  11.0820640
  61.1311480  73.6875250   8.4607290  61.4992300  72.8670460   8.7886860
  60.2709680  73.7477140   8.8762940  58.0913470  76.3414840   8.6845260
  58.5898720  76.8160660   9.3497110  58.2336420  75.4178360   8.8915290
  65.2980330  72.5582800   9.5273650  64.7953930  73.2988200   9.8667460
  66.1136990  72.9466800   9.2110440  63.5902340  77.8015980   2.9735010
  62.6492480  77.8166210   3.1482700  63.9046410  77.0151940   3.4195310
  49.7901540  78.7375570  12.4528030  50.2940560  78.1582850  13.0244260
  49.0508960  79.0215800  12.9904400  51.8224620  76.8805160  13.3478100
  51.8629960  76.5819030  14.2563330  52.6770120  77.2812770  13.1885620
  53.7630430  75.4597260  11.3152590  53.2326890  74.9688210  10.6875930
  54.4318500  75.8881460  10.7810520  62.6608490  79.9266720  11.0793780
  63.0749510  80.0811800  11.9284200  61.7259490  80.0521940  11.2419560
  63.1330660  77.2662880  13.0832930  63.7151430  76.5115200  12.9953410
  63.3092430  77.7970320  12.3064410  54.2502730  72.4259630  11.3949880
  54.1559600  71.8080380  10.6700750  53.6700120  73.1525920  11.1679790
  57.0164170  70.9832870   8.4277270  56.5681470  71.0057130   7.5822820
  56.3829370  70.5851890   9.0247570  59.7587620  77.6103380  10.4327550
  59.8783830  77.0144520  11.1722390  60.6181620  77.6473070  10.0128850
  62.0975520  78.1640570   9.0090060  61.5710740  78.6883190   8.4055200
  62.4406860  78.7967960   9.6399790  56.5256390  74.1524730  11.6903370
  57.1156080  73.8440580  12.3781190  55.7076630  73.6804480  11.8463270
  61.3449820  73.7690540  11.9236390  60.6565340  73.1072080  11.8586380
  62.0655840  73.3228810  12.3684850  49.8535280  78.1256830   2.8238220
  49.1984120  77.8568470   2.1797920  50.6913230  78.0161310   2.3740200
  50.8911210  78.5109400   7.3641560  51.2584250  78.4236800   8.2437580
  50.3222030  77.7475950   7.2648420  65.6915070  76.9793780  10.3772030
  65.4601160  76.7506530   9.4769980  65.9519620  77.8993330  10.3316920
  50.4427210  75.4218490  11.2699980  49.5483260  75.3885250  11.6093690
  50.9824760  75.6205280  12.0351230  64.1303140  72.2050210  13.1551730
  65.0073320  72.2133610  13.5385730  64.1423980  71.4681050  12.5444080
  65.5766410  76.0579750   4.0439750  66.1003890  75.5642400   3.4129920
  66.1625830  76.1930110   4.7887320  65.7556130  76.1419620   7.5659300
  64.8058840  76.1083160   7.6804290  65.9369140  77.0519730   7.3309070
  50.9466920  69.6966820   5.6183200  51.5943110  69.1464200   5.1778360
  51.3668760  69.9509970   6.4399010  66.4953540  73.9514050   2.5169840
  66.3852820  73.7970090   3.4552110  67.2561130  73.4234990   2.2745250
  64.8419260  69.8908180   8.9752840  65.4791480  70.5042320   9.3412030
  64.9894150  69.9268840   8.0302070  50.6998920  69.8522490   8.3608520
  50.3513740  70.3086310   9.1266700  50.3686620  68.9579620   8.4430950
  58.2123740  71.0434370  11.8827940  58.1512630  71.6356200  12.6323350
  59.1524120  70.9360330  11.7378200  60.8498300  70.7004430  11.5220230
  61.4638710  71.0183720  10.8601310  61.3947860  70.2153020  12.1416090
  51.3719560  69.3798690  11.6359290  51.9202550  69.1986740  10.8725400
  51.4374870  68.5892800  12.1715600  61.5906340  69.2636570   7.8489520
  60.7166180  69.5971680   7.6462450  61.4817090  68.7909750   8.6741390
  62.4978320  71.4707440   9.2331240  62.1691680  70.6559200   8.8532970
  63.4460620  71.4277250   9.1096930  59.3381160  70.1806410   6.7882430
  58.5552950  70.6551910   7.0679190  59.0444090  69.2761240   6.6795610
  63.8902230  70.8829510   4.8331520  64.3310320  70.8274610   3.9853120
  63.6209820  71.7987520   4.9041700  65.7540800  70.5144750   2.8440340
  65.6929200  69.5705970   2.6971360  66.5332830  70.6224840   3.3893800
  57.2235380  72.5993160   2.2998460  56.4109890  72.2250050   1.9594340
  57.7277020  71.8438240   2.6019650  61.7260360  69.2635610   3.5381530
  62.3289730  69.8355820   4.0130050  60.9853350  69.8275050   3.3155430
  55.3740120  70.0277060  13.3396000  55.0924390  70.5310660  12.5756820
  55.7559820  69.2298810  12.9738130  61.9755580  69.4430640  13.9176470
  61.8621030  69.7625250  14.8127990  62.7925320  69.8443150  13.6213750
  60.8813730  58.6879620  96.9272150  60.8007780  57.7734230  96.6563860
  60.4678150  59.1846690  96.2211860  59.0131770  60.4658640  98.8081420
  58.2373870  59.9859080  99.0979990  59.6644700  59.7864290  98.6337580
  53.0297600  60.7778450  99.6857180  52.1982480  60.5227160 100.0853690
  53.6378580  60.8489220 100.4215100  63.0339200  64.8718830  97.5880550
  62.5720730  64.1006070  97.9167720  63.8464750  64.8984900  98.0933000
  53.0098860  64.8118540  99.8815200  53.3126900  63.9216280  99.7025420
  53.7542450  65.3688760  99.6537450  51.4389550  55.7380340  93.4699570
  50.5506250  56.0796310  93.3679450  51.7230740  55.5380660  92.5780400
  49.4022560  58.3385990  99.3539270  49.9738670  57.5708190  99.3542910
  49.4024100  58.6374750  98.4445880  59.2602510  67.1576840  97.2084540
  58.6413950  67.6134340  96.6378980  60.1154290  67.3128300  96.8074240
  58.4540760  63.1415830  98.8151580  58.3849040  62.2005770  98.6540710
  59.2160620  63.2317240  99.3874150  59.4845930  55.9486210  99.0420510
  59.8610750  55.0758090  98.9294180  59.3865440  56.2844910  98.1510950
  53.6150940  54.3211840  94.5037950  53.7217690  55.2215570  94.8106710
  52.7043300  54.2729810  94.2132600  63.2670050  53.4436650  95.9748850
  64.0879670  52.9533220  96.0174330  63.3004130  54.0334310  96.7280690
  51.2634100  56.2430850  99.7490540  51.9444210  56.5069220 100.3677940
  50.9482150  55.4031720 100.0828550  55.4558670  57.2898210  98.8363130
  55.9636890  57.7879180  99.4768150  55.9871910  56.5133410  98.6602490
  60.1265860  62.0416080  94.6016450  59.5083130  62.5065530  94.0379170
  60.6389110  62.7343560  95.0185960  63.5031530  55.3837030  98.7476390
  62.7987100  55.6721920  99.3279500  63.8643690  56.1937140  98.3875950
  53.4210100  53.6406730 101.1097000  53.7626910  54.4848780 100.8150870
  52.4825910  53.7890470 101.2262340  49.4949060  62.7272610  91.9756080
  49.1177040  63.2159710  91.2440980  49.7522130  63.3997890  92.6062610
  65.1194310  65.0012160 101.0103870  64.4357830  65.6711270 101.0020540
  65.6588600  65.1992810 100.2448730  66.5718450  54.8291820  99.1385600
  65.6243360  54.8630800  99.2701030  66.8968440  55.6430770  99.5234960
  57.1037990  51.1289000  97.4341590  57.4112970  50.5735890  96.7177090
  56.1738690  51.2633460  97.2514580  62.6553050  66.8456290  99.7249050
  62.6680210  66.4418580  98.8571310  62.1028270  67.6203580  99.6210480
  63.9498470  63.5672510  94.8139220  63.8394800  62.6246840  94.9388640
  63.9466720  63.9288150  95.7001980  62.0538490  61.7486130 101.0531660
  62.4707280  61.5346240 100.2185120  62.7778310  62.0058920 101.6240280
  59.4918750  59.1937830  94.1701710  58.5648030  59.1275210  94.3990180
  59.6443570  60.1317960  94.0556950  59.4787830  55.4654830  91.1668870
  58.5391500  55.6268790  91.2521330  59.7971090  56.1840510  90.6204860
  66.0000590  60.1473350 101.1447900  65.1719220  60.2166440 100.6698030
  66.5951070  60.7327660 100.6763730  63.5216040  60.7558130  94.6736960
  62.9028460  60.4177680  94.0263260  63.5040490  60.1117890  95.3816150
  55.0975390  59.7202570  96.9521440  54.6932390  59.0079820  96.4567340
  55.1838510  59.3755810  97.8409480  55.5657090  63.4070130  99.1160650
  55.2685380  62.8015600  98.4368430  56.5156910  63.4447440  99.0050010
  53.8104010  56.4945780 100.7320480  54.3618600  56.6041120  99.9573730
  54.3247520  56.8683380 101.4475710  61.6980740  59.9944940  91.6809710
  62.1374020  59.1567370  91.5347530  62.4109160  60.6274340  91.7673850
  59.8076120  64.9341010  95.6490950  60.2472030  65.6765340  95.2346340
  59.7463010  65.1767580  96.5729910  65.2797880  51.2487750  89.9950750
  64.9670540  51.3414580  90.8949820  66.0410350  51.8268780  89.9448180
  51.7980020  58.6147550  94.4528090  51.6777620  59.3409640  93.8409360
  51.4880910  57.8450460  93.9756000  49.4365390  61.7862690 100.2596730
  49.5145810  61.9211460  99.3152450  50.0507070  61.0778580 100.4524850
  50.6813020  63.4862880  96.6702910  50.2741100  63.6277470  95.8156510
  51.5726030  63.2023040  96.4674120  62.4746300  67.9210130  93.0053960
  62.3147440  67.6313070  93.9035790  62.3093010  67.1450260  92.4699190
  54.9534680  67.7008660  94.7825580  54.7777160  66.7844200  94.5693380
  54.0990420  68.0595950  95.0223380  62.1772430  65.4297690  91.5651960
  61.4837590  65.4274980  90.9054240  62.9195290  65.0057010  91.1346130
  61.7422360  67.0560400  95.6400450  62.1979310  66.2749780  95.9539070
  62.0814880  67.7667220  96.1841630  54.2643680  51.9582620  97.8351760
  53.8211830  52.7392160  97.5036280  54.8228670  52.2812510  98.5422700
  57.3802500  51.5793320  92.7157590  56.7556680  51.5753190  93.4410900
  57.2932620  50.7124280  92.3193560  56.3019580  52.5029950  99.6941360
  56.5991910  53.4092780  99.6133380  56.8505140  52.0148730  99.0800930
  54.0557900  57.0816190  95.5633010  53.8298820  56.8653360  96.4679630
  53.2750430  57.5144650  95.2178980  61.2855660  57.0879560  94.1623660
  60.6864550  57.8115360  93.9787280  61.8335270  57.0256340  93.3800110
  59.8920530  55.7243100  96.1926940  60.2850100  56.0415300  95.3795630
  60.2537380  54.8454980  96.3071460  48.9284700  52.3143900  98.4157140
  48.6397750  52.8846760  99.1282120  49.6730460  51.8348350  98.7788370
  49.1154930  56.2564020  89.6259860  49.0329600  57.1994780  89.7674850
  48.7637990  56.1138930  88.7472210  60.4775670  58.3148850 100.2877720
  59.7456790  58.8235660 100.6367820  60.0800010  57.4978830  99.9866500
  56.9153060  54.9903050  98.6930210  56.9189120  54.5493000  97.8434750
  57.8104180  55.3120380  98.8002030  52.7655440  54.8729540  97.6524420
  52.4255490  55.3504770  98.4091470  52.0032760  54.4194660  97.2925520
  56.9773210  55.9915130  91.6836970  57.0986030  55.9501610  92.6322790
  56.5921720  56.8539280  91.5283700  60.9401580  53.7682530  99.7000660
  60.9574320  54.2191180 100.5442510  60.6917160  52.8688170  99.9134100
  55.9894710  58.3016270  91.0820270  55.4211610  57.8534520  90.4556180
  56.6983710  58.6609050  90.5485420  57.2161030  59.0504830 100.4395620
  57.5831160  58.5763400 101.1856960  57.0266090  59.9246400 100.7803960
  50.0801520  53.7948520  96.5689090  49.7948440  53.4304190  97.4067710
  50.0180380  53.0628980  95.9552230  53.5342190  62.2974460  93.3546680
  52.7604450  61.7572080  93.1945400  54.2636820  61.7781070  93.0164440
  64.2930170  61.2939820  99.1473070  65.0129290  61.7895110  98.7569180
  64.0911990  60.6157710  98.5026940  59.7540110  52.6877780  93.2902460
  58.9404720  52.1890950  93.2147770  59.5602060  53.5276030  92.8738810
  62.4688500  57.0597430  91.5864620  63.3568120  57.3714660  91.4115960
  62.4393590  56.1869680  91.1945200  53.5779590  61.9654840  96.9925490
  54.0958260  61.1623100  96.9382380  53.1263610  61.9033980  97.8342320
  58.4649090  63.2321120  92.2652790  58.8064790  63.9763350  91.7696110
  57.6361800  63.5452240  92.6277620  64.7402770  58.3709270  91.0544480
  64.6566490  58.8023490  90.2040920  65.4596960  58.8307620  91.4871300
  65.7690020  65.2251530  93.7826610  65.1266180  64.5707150  94.0570330
  65.3820680  65.6306620  93.0067280  61.3476500  62.5536960  97.6298300
  61.7000320  61.9565090  96.9699670  60.4638830  62.2281190  97.8006550
  57.4339780  63.3134650  95.0368710  58.1210910  63.8603860  95.4176300
  56.6472200  63.8575380  95.0718320  49.5732180  58.9307470  90.5285790
  50.4427030  59.2132270  90.8121710  49.0822500  59.7443340  90.4134600
  56.7366990  60.3180680  94.6494070  57.1929770  61.1285930  94.8754260
  56.3855200  60.0003820  95.4812560  52.6378770  50.6618330  95.1216590
  52.5093400  50.6536230  96.0701510  51.8140790  51.0001420  94.7707600
  60.3131680  63.8319370 100.5963820  60.9553910  63.1312530 100.7095990
  60.8381030  64.6117810 100.4160710  64.1587400  64.1167990  90.3202960
  63.9324980  63.3998430  90.9127600  63.7683600  63.8680430  89.4824710
  49.9403430  68.1434850  91.0947420  50.3001070  68.7424190  90.4404690
  49.7995770  68.6894740  91.8682450  63.7403650  62.0339930  91.9817120
  63.4525350  62.4952620  92.7695000  64.5355820  61.5737700  92.2501340
  55.9572050  65.5266050  91.9121090  55.9482150  66.2595740  91.2965600
  55.0370410  65.2797630  92.0048050  51.5578690  60.7480940  92.6567850
  50.9506640  61.4879840  92.6663150  52.0328040  60.8380300  91.8306050
  64.4973510  53.8688700  93.1412300  63.8686670  53.9734370  92.4270530
  64.0025430  54.0885480  93.9306180  58.9431650  65.5894290  90.5746280
  59.0443630  65.3858280  89.6448260  58.0433390  65.3352570  90.7794060
  56.4657540  56.1474650  94.5570180  55.7573690  56.6160990  94.9983790
  56.7502020  55.4896660  95.1915370  60.4972970  52.8725310  95.9965970
  60.3740750  52.8911440  95.0475480  61.4457530  52.9204250  96.1164370
  57.5849760  68.1080610  95.2693950  57.8391260  68.0702000  94.3473320
  56.6362240  67.9813940  95.2622200  54.6692560  54.4559730  91.9320890
  55.5183090  54.8929880  91.8661080  54.3023830  54.7679990  92.7592950
  63.5902340  59.0272490  96.8452460  62.6492480  59.0422720  97.0200150
  63.9046410  58.2408450  97.2912760  53.5683980  60.7092090  90.4056420
  54.3347250  60.5973450  90.9681850  53.6458670  60.0130060  89.7533190
  52.2630740  58.1417160  91.0889310  52.3434330  57.1944670  91.2006710
  53.1550490  58.4724040  91.1949970  65.5927920  66.1981340  98.5206720
  65.7175340  67.0212510  98.9930530  66.4593480  65.9872070  98.1730870
  53.0645450  68.2912550  98.1923850  53.8007930  67.7428010  98.4632420
  53.4486370  69.1568560  98.0529840  49.9490930  64.3586120  94.0665360
  49.0230710  64.6007260  94.0570770  50.4147360  65.1860380  93.9450110
  56.1747760  67.4642860  90.0149420  56.9676370  67.7531690  89.5631210
  55.6552110  67.0335030  89.3361900  65.2277930  66.6912990  91.4386160
  64.9419440  66.2778130  90.6240340  65.0297480  67.6200700  91.3186680
  56.6925160  62.6846270  89.8791770  56.5875800  62.0698620  90.6053150
  56.5249380  62.1612160  89.0954780  59.9327890  61.7466300  90.4833760
  59.3837990  62.1935600  91.1276500  60.5547150  61.2415550  91.0071430
  55.6003010  60.7057220  92.3799060  56.0219430  60.5397090  93.2230450
  55.7253850  59.8957450  91.8854200  58.1130650  59.7294830  89.6276160
  58.6336310  59.0143850  89.2617310  58.7599050  60.3680700  89.9276670
  54.4961910  56.7790450  89.3257220  54.2950970  55.9157810  89.6870560
  54.3253960  56.6923810  88.3878820  61.9750220  51.5898680  91.8544100
  62.2552510  50.7466580  92.2103520  61.2015950  51.8221790  92.3682850
  53.2944710  53.8791070  89.3135100  53.5970610  53.8858500  88.4054250
  54.0339300  53.5288930  89.8102760  56.5129640  52.8225690  90.2991300
  56.1651640  52.1449680  89.7193750  56.7142410  52.3615200  91.1134690
  58.6778680  67.8106440  91.9177900  59.5729470  68.1491410  91.9396660
  58.7096310  67.0885850  91.2902180  52.3174840  63.1833490  90.1464900
  52.7549710  63.7263160  90.8022480  52.8022570  62.3580440  90.1561240
  49.5320640  65.9722520  97.5985160  49.8623650  65.1043580  97.3663800
  49.9611640  66.1781040  98.4290120  54.1282560  64.3031530  95.2587130
  53.8278100  64.1796500  96.1591040  54.0220050  63.4440120  94.8502860
  50.0210850  66.8393110 100.3366790  49.5841840  67.0193910 101.1690940
  50.5888530  67.5967730 100.1948510  66.8974480  64.0827930  89.9613810
  66.0667440  64.1504580  90.4321040  67.0746310  64.9732050  89.6580670
  66.3530940  60.8275410  92.4648010  67.1149850  61.3972060  92.5707700
  66.3685310  60.2602610  93.2356320  49.8535280  59.3513340  96.6955670
  49.1984120  59.0824980  96.0515370  50.6913230  59.2417820  96.2457650
  67.3590910  61.6825510  97.3089940  67.7299740  60.8992830  96.9025910
  67.9992840  62.3714610  97.1307240  66.4050110  61.1209780  89.6220530
  66.6798950  62.0288660  89.4939750  66.2160850  61.0572310  90.5582520
  62.8025720  54.1454630  90.9174160  63.2210600  53.9585610  90.0770820
  62.4961780  53.2933680  91.2277090  66.3015450  59.0578770  94.6149960
  65.9259050  58.2906700  94.1831250  65.5718570  59.4401470  95.1024890
  49.0673360  56.5612270  92.6381000  48.1637440  56.8242470  92.4632660
  49.5513980  56.8323440  91.8580960  65.5766410  57.2836260  97.9157200
  66.1003890  56.7898910  97.2847370  66.1625830  57.4186620  98.6604770
  65.7556130  57.3676130 101.4376750  64.8058840  57.3339670 101.5521740
  65.9369140  58.2776240 101.2026520  51.6100570  55.6177810  90.5475380
  52.3192270  55.1961030  90.0622660  50.8940510  55.6853040  89.9158730
  51.2574730  51.6717140  89.5878030  51.9802860  52.2126080  89.9059250
  51.5299250  51.3980560  88.7119570  65.0666380  56.5409610  93.8549610
  65.5625500  56.3080480  94.6398490  64.8682450  55.7021450  93.4387250
  50.9466920  50.9223330  99.4900650  51.5943110  50.3720710  99.0495810
  51.3668760  51.1766480 100.3116460  66.4953540  55.1770560  96.3887290
  66.3852820  55.0226600  97.3269560  67.2561130  54.6491500  96.1462700
  67.3843810  53.0078480  89.6293430  68.3093120  52.8759660  89.4211720
  67.3619600  53.0871300  90.5829880  67.4582300  53.7789140  92.2550140
  66.6633800  53.7134260  92.7843050  67.6625580  54.7139780  92.2435490
  64.4000720  67.8180690  96.2488530  64.9959790  67.4965260  95.5722950
  64.6578870  67.3452510  97.0401800  64.9512930  68.4675990 100.0786260
  64.4915900  69.2191800  99.7044280  64.3225390  67.7482460 100.0201060
  55.3808650  66.7764230  99.2534390  55.8973670  66.1651590  98.7282650
  56.0306030  67.2793010  99.7445400  58.1204150  67.6672720 100.0803370
  58.4081960  67.4127020  99.2036380  58.6327370  67.1150080 100.6708940
  59.3381160  51.4062920 100.6599880  58.5552950  51.8808420 100.9396640
  59.0444090  50.5017750 100.5513060  63.8902230  52.1086020  98.7048970
  64.3310320  52.0531120  97.8570570  63.6209820  53.0244030  98.7759150
  65.7540800  51.7401260  96.7157790  65.6929200  50.7962480  96.5688810
  66.5332830  51.8481350  97.2611250  50.0593550  67.8793620  95.6781740
  49.8915590  67.2464300  96.3763630  49.1928060  68.0853020  95.3275930
  50.6821570  51.7110400  93.1813600  51.4400930  51.8239280  92.6077630
  50.2198740  52.5479600  93.1357030  57.2235380  53.8249670  96.1715910
  56.4109890  53.4506560  95.8311790  57.7277020  53.0694750  96.4737100
  61.7260360  50.4892120  97.4098980  62.3289730  51.0612330  97.8847500
  60.9853350  51.0531560  97.1872880  64.8694960  50.8913680  92.6839260
  65.0645590  51.7897130  92.9506690  64.0824830  50.6600760  93.1772210
  51.6656250  66.5726850  93.1231880  51.1403870  66.9534880  92.4193840
  51.5900830  67.1977620  93.8441590  53.0546720  52.2374450  91.7215570
  53.5839480  51.4504250  91.5923520  53.6875040  52.9165640  91.9551100
  55.2484560  51.9749590  94.7760960  54.6187300  51.2736900  94.9431090
  54.7089700  52.7353720  94.5594120  66.4221570  68.1314390  94.4445820
  66.5973760  67.4452130  93.8006740  65.7243140  68.6561440  94.0522490
  54.2649220  68.5209230  91.9981130  54.9968040  68.2368510  91.4505020
  54.5242890  68.2822510  92.8880510  53.4264010  64.6373960  92.0027460
  52.7972890  65.1059060  92.5513290  53.5411840  63.7923180  92.4373650
  60.8813730  58.6879620  78.1528660  60.8007780  57.7734230  77.8820370
  60.4678150  59.1846690  77.4468370  59.0131770  60.4658640  80.0337930
  58.2373870  59.9859080  80.3236500  59.6644700  59.7864290  79.8594090
  53.0297600  60.7778450  80.9113690  52.1982480  60.5227160  81.3110200
  53.6378580  60.8489220  81.6471610  63.0339200  64.8718830  78.8137060
  62.5720730  64.1006070  79.1424230  63.8464750  64.8984900  79.3189510
  53.0098860  64.8118540  81.1071710  53.3126900  63.9216280  80.9281930
  53.7542450  65.3688760  80.8793960  51.4389550  55.7380340  74.6956080
  50.5506250  56.0796310  74.5935960  51.7230740  55.5380660  73.8036910
  49.4022560  58.3385990  80.5795780  49.9738670  57.5708190  80.5799420
  49.4024100  58.6374750  79.6702390  59.2602510  67.1576840  78.4341050
  58.6413950  67.6134340  77.8635490  60.1154290  67.3128300  78.0330750
  58.4540760  63.1415830  80.0408090  58.3849040  62.2005770  79.8797220
  59.2160620  63.2317240  80.6130660  50.6447430  53.7470350  82.3664710
  50.4650270  52.8496100  82.6467470  50.2427510  54.2942220  83.0411660
  59.4845930  55.9486210  80.2677020  59.8610750  55.0758090  80.1550690
  59.3865440  56.2844910  79.3767460  53.6150940  54.3211840  75.7294460
  53.7217690  55.2215570  76.0363220  52.7043300  54.2729810  75.4389110
  63.2670050  53.4436650  77.2005360  64.0879670  52.9533220  77.2430840
  63.3004130  54.0334310  77.9537200  51.2634100  56.2430850  80.9747050
  51.9444210  56.5069220  81.5934450  50.9482150  55.4031720  81.3085060
  55.4558670  57.2898210  80.0619640  55.9636890  57.7879180  80.7024660
  55.9871910  56.5133410  79.8859000  67.5569600  55.4603400  83.7648990
  66.8521770  55.8485110  83.2464100  67.8227520  56.1553690  84.3669920
  53.7394770  51.9296770  84.3283060  53.7413210  52.4469160  83.5228960
  52.9099080  51.4526950  84.3052990  60.1265860  62.0416080  75.8272960
  59.5083130  62.5065530  75.2635680  60.6389110  62.7343560  76.2442470
  54.9897620  61.5691950  82.5056560  54.6567000  62.1960870  83.1477630
  55.1664300  62.0953830  81.7258230  63.5031530  55.3837030  79.9732900
  62.7987100  55.6721920  80.5536010  63.8643690  56.1937140  79.6132460
  53.4210100  53.6406730  82.3353510  53.7626910  54.4848780  82.0407380
  52.4825910  53.7890470  82.4518850  54.2016720  63.5372750  84.3205740
  54.8190720  64.2123830  84.0390190  53.3409840  63.9460730  84.2293240
  49.4949060  62.7272610  73.2012590  49.1177040  63.2159710  72.4697490
  49.7522130  63.3997890  73.8319120  65.1194310  65.0012160  82.2360380
  64.4357830  65.6711270  82.2277050  65.6588600  65.1992810  81.4705240
  66.5718450  54.8291820  80.3642110  65.6243360  54.8630800  80.4957540
  66.8968440  55.6430770  80.7491470  57.1037990  51.1289000  78.6598100
  57.4112970  50.5735890  77.9433600  56.1738690  51.2633460  78.4771090
  62.6553050  66.8456290  80.9505560  62.6680210  66.4418580  80.0827820
  62.1028270  67.6203580  80.8466990  63.9498470  63.5672510  76.0395730
  63.8394800  62.6246840  76.1645150  63.9466720  63.9288150  76.9258490
  62.0538490  61.7486130  82.2788170  62.4707280  61.5346240  81.4441630
  62.7778310  62.0058920  82.8496790  59.4918750  59.1937830  75.3958220
  58.5648030  59.1275210  75.6246690  59.6443570  60.1317960  75.2813460
  66.0000590  60.1473350  82.3704410  65.1719220  60.2166440  81.8954540
  66.5951070  60.7327660  81.9020240  63.5216040  60.7558130  75.8993470
  62.9028460  60.4177680  75.2519770  63.5040490  60.1117890  76.6072660
  62.9642600  56.9342670  83.3159280  62.5513780  57.7596380  83.5699270
  62.2318550  56.3487710  83.1235640  55.0975390  59.7202570  78.1777950
  54.6932390  59.0079820  77.6823850  55.1838510  59.3755810  79.0665990
  55.5657090  63.4070130  80.3417160  55.2685380  62.8015600  79.6624940
  56.5156910  63.4447440  80.2306520  53.8104010  56.4945780  81.9576990
  54.3618600  56.6041120  81.1830240  54.3247520  56.8683380  82.6732220
  63.6542700  66.9802000  84.0040260  63.1773260  67.7874190  83.8112870
  62.9704490  66.3280330  84.1566470  54.6575520  63.1451820  86.9924960
  53.7604050  63.3691790  87.2398360  54.6828390  63.2686760  86.0436360
  61.6980740  59.9944940  72.9066220  62.1374020  59.1567370  72.7604040
  62.4109160  60.6274340  72.9930360  53.4846740  60.0165140  85.5682330
  53.3454510  60.8887940  85.9369730  52.6028100  59.6737950  85.4230270
  59.8076120  64.9341010  76.8747460  60.2472030  65.6765340  76.4602850
  59.7463010  65.1767580  77.7986420  55.2827090  65.9586840  87.7767480
  55.2542520  66.3629790  86.9095910  55.1192060  65.0297200  87.6139080
  65.2797880  51.2487750  71.2207260  64.9670540  51.3414580  72.1206330
  66.0410350  51.8268780  71.1704690  51.7980020  58.6147550  75.6784600
  51.6777620  59.3409640  75.0665870  51.4880910  57.8450460  75.2012510
  67.2341910  66.7413940  89.0731650  67.7101630  67.2196830  89.7520730
  67.8549070  66.6731430  88.3477150  49.4365390  61.7862690  81.4853240
  49.5145810  61.9211460  80.5408960  50.0507070  61.0778580  81.6781360
  50.6813020  63.4862880  77.8959420  50.2741100  63.6277470  77.0413020
  51.5726030  63.2023040  77.6930630  66.6375160  63.9326790  86.2331660
  66.7638220  63.6938670  85.3148840  66.6796540  63.1011330  86.7053740
  60.4991900  67.6354790  84.8026470  61.0136570  67.5462800  85.6048900
  59.6560980  67.9814490  85.0954380  62.4746300  67.9210130  74.2310470
  62.3147440  67.6313070  75.1292300  62.3093010  67.1450260  73.6955700
  54.9534680  67.7008660  76.0082090  54.7777160  66.7844200  75.7949890
  54.0990420  68.0595950  76.2479890  62.1772430  65.4297690  72.7908470
  61.4837590  65.4274980  72.1310750  62.9195290  65.0057010  72.3602640
  61.7422360  67.0560400  76.8656960  62.1979310  66.2749780  77.1795580
  62.0814880  67.7667220  77.4098140  66.4899170  55.9859250  87.1981400
  65.8743440  56.4938920  86.6696860  66.1695590  55.0857580  87.1407340
  49.4924910  62.8276860  84.0247700  49.6555950  62.3582220  83.2067070
  49.9577360  62.3200420  84.6896540  54.2643680  51.9582620  79.0608270
  53.8211830  52.7392160  78.7292790  54.8228670  52.2812510  79.7679210
  58.5513490  54.8251140  84.6643590  58.0892860  55.0334160  85.4763530
  58.1491600  54.0110490  84.3614260  63.5518000  56.0460090  85.7940250
  62.7011590  55.7465840  86.1149320  63.3919790  56.2902100  84.8824070
  60.6467710  57.5461840  87.8939040  60.9721120  56.7125590  87.5541270
  61.4348040  58.0690360  88.0417370  57.3802500  51.5793320  73.9414100
  56.7556680  51.5753190  74.6667410  57.2932620  50.7124280  73.5450070
  56.3019580  52.5029950  80.9197870  56.5991910  53.4092780  80.8389890
  56.8505140  52.0148730  80.3057440  54.0557900  57.0816190  76.7889520
  53.8298820  56.8653360  77.6936140  53.2750430  57.5144650  76.4435490
  61.2855660  57.0879560  75.3880170  60.6864550  57.8115360  75.2043790
  61.8335270  57.0256340  74.6056620  56.4957110  57.9801770  87.4549790
  56.4000710  57.0396500  87.3050190  57.3389090  58.2016840  87.0597860
  59.8920530  55.7243100  77.4183450  60.2850100  56.0415300  76.6052140
  60.2537380  54.8454980  77.5327970  51.6267650  54.3915440  85.6083570
  51.2331040  55.2390650  85.8156350  50.9386050  53.7541810  85.7992210
  58.2012700  54.4750410  88.6780310  57.5111020  54.2822610  89.3126400
  58.9445000  54.7585050  89.2104610  48.9284700  52.3143900  79.6413650
  48.6397750  52.8846760  80.3538630  49.6730460  51.8348350  80.0044880
  49.1154930  56.2564020  70.8516370  49.0329600  57.1994780  70.9931360
  48.7637990  56.1138930  69.9728720  60.4775670  58.3148850  81.5134230
  59.7456790  58.8235660  81.8624330  60.0800010  57.4978830  81.2123010
  56.9153060  54.9903050  79.9186720  56.9189120  54.5493000  79.0691260
  57.8104180  55.3120380  80.0258540  52.7655440  54.8729540  78.8780930
  52.4255490  55.3504770  79.6347980  52.0032760  54.4194660  78.5182030
  60.9401580  53.7682530  80.9257170  60.9574320  54.2191180  81.7699020
  60.6917160  52.8688170  81.1390610  64.3672330  51.1814710  86.7643550
  64.6918100  50.4504370  87.2901530  64.4028840  50.8628350  85.8624540
  51.0663890  62.2028290  86.1843510  50.6818680  61.5621960  86.7826470
  51.3776080  62.9064410  86.7538240  57.2161030  59.0504830  81.6652130
  57.5831160  58.5763400  82.4113470  57.0266090  59.9246400  82.0060470
  50.0801520  53.7948520  77.7945600  49.7948440  53.4304190  78.6324220
  50.0180380  53.0628980  77.1808740  55.0060400  58.0913470  83.9836340
  54.7017470  58.9705450  84.2086700  55.9606860  58.1513260  84.0193780
  53.5342190  62.2974460  74.5803190  52.7604450  61.7572080  74.4201910
  54.2636820  61.7781070  74.2420950  64.2930170  61.2939820  80.3729580
  65.0129290  61.7895110  79.9825690  64.0911990  60.6157710  79.7283450
  59.7540110  52.6877780  74.5158970  58.9404720  52.1890950  74.4404280
  59.5602060  53.5276030  74.0995320  59.6748970  61.3648880  86.2598580
  59.6086280  60.4444550  86.0056170  59.0454110  61.4624320  86.9743220
  62.4688500  57.0597430  72.8121130  63.3568120  57.3714660  72.6372470
  62.4393590  56.1869680  72.4201710  53.5779590  61.9654840  78.2182000
  54.0958260  61.1623100  78.1638890  53.1263610  61.9033980  79.0598830
  58.4649090  63.2321120  73.4909300  58.8064790  63.9763350  72.9952620
  57.6361800  63.5452240  73.8534130  51.0624130  58.9316210  85.1307700
  50.7039070  59.5970060  85.7181040  50.7678690  58.0999760  85.5020320
  54.2637250  59.3900450  88.0147250  53.9637390  59.5357630  87.1175070
  55.0348490  58.8305740  87.9220640  59.6065700  64.1869450  86.0102380
  59.6210240  63.2550410  85.7921290  58.8990800  64.2729210  86.6492150
  64.7402770  58.3709270  72.2800990  64.6566490  58.8023490  71.4297430
  65.4596960  58.8307620  72.7127810  65.8176910  60.8276790  85.3570960
  65.0925100  61.4205570  85.1600350  66.3452370  60.8200330  84.5584330
  65.7690020  65.2251530  75.0083120  65.1266180  64.5707150  75.2826840
  65.3820680  65.6306620  74.2323790  61.3476500  62.5536960  78.8554810
  61.7000320  61.9565090  78.1956180  60.4638830  62.2281190  79.0263060
  57.4339780  63.3134650  76.2625220  58.1210910  63.8603860  76.6432810
  56.6472200  63.8575380  76.2974830  49.5732180  58.9307470  71.7542300
  50.4427030  59.2132270  72.0378220  49.0822500  59.7443340  71.6391110
  56.7366990  60.3180680  75.8750580  57.1929770  61.1285930  76.1010770
  56.3855200  60.0003820  76.7069070  59.0399600  65.8287020  83.1042880
  59.6841820  66.0346400  83.7816300  59.4029040  65.0675420  82.6513730
  52.6378770  50.6618330  76.3473100  52.5093400  50.6536230  77.2958020
  51.8140790  51.0001420  75.9964110  60.3131680  63.8319370  81.8220330
  60.9553910  63.1312530  81.9352500  60.8381030  64.6117810  81.6417220
  64.1587400  64.1167990  71.5459470  63.9324980  63.3998430  72.1384110
  63.7683600  63.8680430  70.7081220  62.0869300  64.6314270  85.0256390
  62.4225540  65.2180960  85.7034310  61.1669640  64.5006980  85.2554180
  49.9403430  68.1434850  72.3203930  50.3001070  68.7424190  71.6661200
  49.7995770  68.6894740  73.0938960  49.6372700  52.4209450  85.8079800
  48.9231220  52.6206370  86.4132410  50.0567740  51.6449020  86.1794600
  63.7403650  62.0339930  73.2073630  63.4525350  62.4952620  73.9951510
  64.5355820  61.5737700  73.4757850  49.9245290  66.4089710  86.7946330
  50.0336410  65.4684450  86.6541720  49.2725850  66.6744460  86.1460060
  57.9157880  64.6805600  88.1944450  57.5954750  63.9614840  88.7390140
  57.2416240  65.3560670  88.2680510  55.9572050  65.5266050  73.1377600
  55.9482150  66.2595740  72.5222110  55.0370410  65.2797630  73.2304560
  51.5578690  60.7480940  73.8824360  50.9506640  61.4879840  73.8919660
  52.0328040  60.8380300  73.0562560  61.1311480  54.9131760  83.5581250
  61.4992300  54.0926970  83.8860820  60.2709680  54.9733650  83.9736900
  64.4973510  53.8688700  74.3668810  63.8686670  53.9734370  73.6527040
  64.0025430  54.0885480  75.1562690  58.9431650  65.5894290  71.8002790
  59.0443630  65.3858280  70.8704770  58.0433390  65.3352570  72.0050570
  56.4657540  56.1474650  75.7826690  55.7573690  56.6160990  76.2240300
  56.7502020  55.4896660  76.4171880  58.0913470  57.5671350  83.7819220
  58.5898720  58.0417170  84.4471070  58.2336420  56.6434870  83.9889250
  60.4972970  52.8725310  77.2222480  60.3740750  52.8911440  76.2731990
  61.4457530  52.9204250  77.3420880  57.5849760  68.1080610  76.4950460
  57.8391260  68.0702000  75.5729830  56.6362240  67.9813940  76.4878710
  65.2980330  53.7839310  84.6247610  64.7953930  54.5244710  84.9641420
  66.1136990  54.1723310  84.3084400  63.5902340  59.0272490  78.0708970
  62.6492480  59.0422720  78.2456660  63.9046410  58.2408450  78.5169270
  53.5683980  60.7092090  71.6312930  54.3347250  60.5973450  72.1938360
  53.6458670  60.0130060  70.9789700  65.5927920  66.1981340  79.7463230
  65.7175340  67.0212510  80.2187040  66.4593480  65.9872070  79.3987380
  53.0645450  68.2912550  79.4180360  53.8007930  67.7428010  79.6888930
  53.4486370  69.1568560  79.2786350  49.9490930  64.3586120  75.2921870
  49.0230710  64.6007260  75.2827280  50.4147360  65.1860380  75.1706620
  52.0703730  67.4758620  88.6065940  52.8716460  67.7970670  89.0201340
  51.5555550  67.1154200  89.3285850  56.1747760  67.4642860  71.2405930
  56.9676370  67.7531690  70.7887720  55.6552110  67.0335030  70.5618410
  60.9068360  63.5838490  88.5541350  60.3006520  63.6070090  87.8137100
  60.6022470  62.8521530  89.0908600  62.3368730  67.3118780  87.1650760
  63.2890480  67.2276800  87.1151000  62.1896950  67.9760490  87.8384550
  65.2277930  66.6912990  72.6642670  64.9419440  66.2778130  71.8496850
  65.0297480  67.6200700  72.5443190  49.7901540  59.9632080  87.5501990
  50.2940560  59.3839360  88.1218220  49.0508960  60.2472310  88.0878360
  56.6925160  62.6846270  71.1048280  56.5875800  62.0698620  71.8309660
  56.5249380  62.1612160  70.3211290  56.8439480  61.3703070  87.0837510
  56.0785150  61.9388070  86.9992180  57.0255440  61.0779280  86.1905740
  59.9327890  61.7466300  71.7090270  59.3837990  62.1935600  72.3533010
  60.5547150  61.2415550  72.2327940  63.9862830  63.1008400  87.6412530
  64.7272300  63.4384160  87.1379990  63.2235510  63.2700460  87.0882300
  51.8224620  58.1061670  88.4452060  51.8629960  57.8075540  89.3537290
  52.6770120  58.5069280  88.2859580  55.6003010  60.7057220  73.6055570
  56.0219430  60.5397090  74.4486960  55.7253850  59.8957450  73.1110710
  53.7630430  56.6853770  86.4126550  53.2326890  56.1944720  85.7849890
  54.4318500  57.1137970  85.8784480  62.6608490  61.1523230  86.1767740
  63.0749510  61.3068310  87.0258160  61.7259490  61.2778450  86.3393520
  63.1330660  58.4919390  88.1806890  63.7151430  57.7371710  88.0927370
  63.3092430  59.0226830  87.4038370  54.2502730  53.6516140  86.4923840
  54.1559600  53.0336890  85.7674710  53.6700120  54.3782430  86.2653750
  57.0164170  52.2089380  83.5251230  56.5681470  52.2313640  82.6796780
  56.3829370  51.8108400  84.1221530  57.4223720  61.1043710  84.1463670
  57.8411830  61.9476440  83.9739910  56.5032350  61.2415750  83.9170450
  59.7587620  58.8359890  85.5301510  59.8783830  58.2401030  86.2696350
  60.6181620  58.8729580  85.1102810  62.0975520  59.3897080  84.1064020
  61.5710740  59.9139700  83.5029160  62.4406860  60.0224470  84.7373750
  55.2731140  67.4096720  85.2621400  54.7352230  68.1342780  84.9430100
  55.5265100  66.9327060  84.4718740  56.5256390  55.3781240  86.7877330
  57.1156080  55.0697090  87.4755150  55.7076630  54.9060990  86.9437230
  61.3449820  54.9947050  87.0210350  60.6565340  54.3328590  86.9560340
  62.0655840  54.5485320  87.4658810  58.1293350  68.6447930  85.5208050
  58.0552050  69.5483070  85.8280420  57.2272190  68.3259830  85.4930120
  58.6778680  67.8106440  73.1434410  59.5729470  68.1491410  73.1653170
  58.7096310  67.0885850  72.5158690  52.3174840  63.1833490  71.3721410
  52.7549710  63.7263160  72.0278990  52.8022570  62.3580440  71.3817750
  49.5320640  65.9722520  78.8241670  49.8623650  65.1043580  78.5920310
  49.9611640  66.1781040  79.6546630  54.1282560  64.3031530  76.4843640
  53.8278100  64.1796500  77.3847550  54.0220050  63.4440120  76.0759370
  50.0210850  66.8393110  81.5623300  49.5841840  67.0193910  82.3947450
  50.5888530  67.5967730  81.4205020  65.6573030  66.3410110  85.8500610
  65.0575020  66.4002670  85.1064530  65.7866930  65.4015090  85.9797460
  66.8974480  64.0827930  71.1870320  66.0667440  64.1504580  71.6577550
  67.0746310  64.9732050  70.8837180  66.3530940  60.8275410  73.6904520
  67.1149850  61.3972060  73.7964210  66.3685310  60.2602610  74.4612830
  49.8535280  59.3513340  77.9212180  49.1984120  59.0824980  77.2771880
  50.6913230  59.2417820  77.4714160  67.3590910  61.6825510  78.5346450
  67.7299740  60.8992830  78.1282420  67.9992840  62.3714610  78.3563750
  64.3424670  63.0662090  83.9476770  63.5284510  63.4959250  84.2102560
  64.7498870  63.6780500  83.3345820  66.4050110  61.1209780  70.8477040
  66.6798950  62.0288660  70.7196260  66.2160850  61.0572310  71.7839030
  66.3015450  59.0578770  75.8406470  65.9259050  58.2906700  75.4087760
  65.5718570  59.4401470  76.3281400  50.8911210  59.7365910  82.4615520
  51.2584250  59.6493310  83.3411540  50.3222030  58.9732460  82.3622380
  65.6915070  58.2050290  85.4745990  65.4601160  57.9763040  84.5743940
  65.9519620  59.1249840  85.4290880  50.4427210  56.6475000  86.3673940
  49.5483260  56.6141760  86.7067650  50.9824760  56.8461790  87.1325190
  64.1303140  53.4306720  88.2525690  65.0073320  53.4390120  88.6359690
  64.1423980  52.6937560  87.6418040  49.0673360  56.5612270  73.8637510
  48.1637440  56.8242470  73.6889170  49.5513980  56.8323440  73.0837470
  65.5766410  57.2836260  79.1413710  66.1003890  56.7898910  78.5103880
  66.1625830  57.4186620  79.8861280  65.7556130  57.3676130  82.6633260
  64.8058840  57.3339670  82.7778250  65.9369140  58.2776240  82.4283030
  51.2574730  51.6717140  70.8134540  51.9802860  52.2126080  71.1315760
  51.5299250  51.3980560  69.9376080  65.0666380  56.5409610  75.0806120
  65.5625500  56.3080480  75.8655000  64.8682450  55.7021450  74.6643760
  50.9466920  50.9223330  80.7157160  51.5943110  50.3720710  80.2752320
  51.3668760  51.1766480  81.5372970  66.4953540  55.1770560  77.6143800
  66.3852820  55.0226600  78.5526070  67.2561130  54.6491500  77.3719210
  64.8419260  51.1164690  84.0726800  65.4791480  51.7298830  84.4385990
  64.9894150  51.1525350  83.1276030  67.3843810  53.0078480  70.8549940
  68.3093120  52.8759660  70.6468230  67.3619600  53.0871300  71.8086390
  67.4582300  53.7789140  73.4806650  66.6633800  53.7134260  74.0099560
  67.6625580  54.7139780  73.4692000  64.4000720  67.8180690  77.4745040
  64.9959790  67.4965260  76.7979460  64.6578870  67.3452510  78.2658310
  50.6998920  51.0779000  83.4582480  50.3513740  51.5342820  84.2240660
  50.3686620  50.1836130  83.5404910  52.3063290  64.2498600  87.6235670
  52.2632920  63.8791510  88.5050130  52.4374300  65.1876170  87.7637490
  56.0069320  65.8058190  83.2245390  55.7660680  66.0732750  82.3375910
  56.9471960  65.9763920  83.2796250  58.2123740  52.2690880  86.9801900
  58.1512630  52.8612710  87.7297310  59.1524120  52.1616840  86.8352160
  60.8498300  51.9260940  86.6194190  61.4638710  52.2440230  85.9575270
  61.3947860  51.4409530  87.2390050  67.2673480  67.8252570  84.0256030
  66.7731760  68.2221440  83.3083160  66.6586770  67.2001780  84.4193310
  51.3719560  50.6055200  86.7333250  51.9202550  50.4243250  85.9699360
  51.4374870  49.8149310  87.2689560  52.1451320  67.1960850  84.7433450
  51.5511640  67.0645550  85.4823490  52.1375160  66.3598990  84.2775550
  61.5906340  50.4893080  82.9463480  60.7166180  50.8228190  82.7436410
  61.4817090  50.0166260  83.7715350  62.4978320  52.6963950  84.3305200
  62.1691680  51.8815710  83.9506930  63.4460620  52.6533760  84.2070890
  64.9512930  68.4675990  81.3042770  64.4915900  69.2191800  80.9300790
  64.3225390  67.7482460  81.2457570  51.7763550  64.5619230  83.6941490
  51.0497610  63.9424520  83.6267440  51.8372700  64.9559840  82.8239570
  55.3808650  66.7764230  80.4790900  55.8973670  66.1651590  79.9539160
  56.0306030  67.2793010  80.9701910  58.1204150  67.6672720  81.3059880
  58.4081960  67.4127020  80.4292890  58.6327370  67.1150080  81.8965450
  59.3381160  51.4062920  81.8856390  58.5552950  51.8808420  82.1653150
  59.0444090  50.5017750  81.7769570  63.8902230  52.1086020  79.9305480
  64.3310320  52.0531120  79.0827080  63.6209820  53.0244030  80.0015660
  65.7540800  51.7401260  77.9414300  65.6929200  50.7962480  77.7945320
  66.5332830  51.8481350  78.4867760  50.0593550  67.8793620  76.9038250
  49.8915590  67.2464300  77.6020140  49.1928060  68.0853020  76.5532440
  50.6821570  51.7110400  74.4070110  51.4400930  51.8239280  73.8334140
  50.2198740  52.5479600  74.3613540  57.2235380  53.8249670  77.3972420
  56.4109890  53.4506560  77.0568300  57.7277020  53.0694750  77.6993610
  61.7260360  50.4892120  78.6355490  62.3289730  51.0612330  79.1104010
  60.9853350  51.0531560  78.4129390  64.8694960  50.8913680  73.9095770
  65.0645590  51.7897130  74.1763200  64.0824830  50.6600760  74.4028720
  51.6656250  66.5726850  74.3488390  51.1403870  66.9534880  73.6450350
  51.5900830  67.1977620  75.0698100  53.0546720  52.2374450  72.9472080
  53.5839480  51.4504250  72.8180030  53.6875040  52.9165640  73.1807610
  55.2484560  51.9749590  76.0017470  54.6187300  51.2736900  76.1687600
  54.7089700  52.7353720  75.7850630  58.1876510  68.5888820  88.6728080
  59.1143820  68.3533090  88.7164040  58.1726940  69.4160820  88.1914110
  66.4221570  68.1314390  75.6702330  66.5973760  67.4452130  75.0263250
  65.7243140  68.6561440  75.2779000  55.3740120  51.2533570  88.4369960
  55.0924390  51.7567170  87.6730780  55.7559820  50.4555320  88.0712090
  54.2649220  68.5209230  73.2237640  54.9968040  68.2368510  72.6761530
  54.5242890  68.2822510  74.1137020  53.4264010  64.6373960  73.2283970
  52.7972890  65.1059060  73.7769800  53.5411840  63.7923180  73.6630160
  61.9755580  50.6687150  89.0150430  61.8621030  50.9881760  89.9101950
  62.7925320  51.0699660  88.7187710  64.7554070  67.8158680  88.4969120
  65.5479390  67.3207910  88.2895080  65.0487220  68.4948820  89.1044730
  60.8813730  58.6879620  59.3785170  60.8007780  57.7734230  59.1076880
  60.4678150  59.1846690  58.6724880  63.0339200  64.8718830  60.0393570
  62.5720730  64.1006070  60.3680740  63.8464750  64.8984900  60.5446020
  53.0098860  64.8118540  62.3328220  53.3126900  63.9216280  62.1538440
  53.7542450  65.3688760  62.1050470  59.2602510  67.1576840  59.6597560
  58.6413950  67.6134340  59.0892000  60.1154290  67.3128300  59.2587260
  58.4540760  63.1415830  61.2664600  58.3849040  62.2005770  61.1053730
  59.2160620  63.2317240  61.8387170  63.2670050  53.4436650  58.4261870
  64.0879670  52.9533220  58.4687350  63.3004130  54.0334310  59.1793710
  67.5569600  55.4603400  64.9905500  66.8521770  55.8485110  64.4720610
  67.8227520  56.1553690  65.5926430  60.1265860  62.0416080  57.0529470
  59.5083130  62.5065530  56.4892190  60.6389110  62.7343560  57.4698980
  63.5031530  55.3837030  61.1989410  62.7987100  55.6721920  61.7792520
  63.8643690  56.1937140  60.8388970  54.2016720  63.5372750  65.5462250
  54.8190720  64.2123830  65.2646700  53.3409840  63.9460730  65.4549750
  65.1194310  65.0012160  63.4616890  64.4357830  65.6711270  63.4533560
  65.6588600  65.1992810  62.6961750  66.5718450  54.8291820  61.5898620
  65.6243360  54.8630800  61.7214050  66.8968440  55.6430770  61.9747980
  62.6553050  66.8456290  62.1762070  62.6680210  66.4418580  61.3084330
  62.1028270  67.6203580  62.0723500  63.9498470  63.5672510  57.2652240
  63.8394800  62.6246840  57.3901660  63.9466720  63.9288150  58.1515000
  62.0538490  61.7486130  63.5044680  62.4707280  61.5346240  62.6698140
  62.7778310  62.0058920  64.0753300  59.4918750  59.1937830  56.6214730
  58.5648030  59.1275210  56.8503200  59.6443570  60.1317960  56.5069970
  59.4787830  55.4654830  53.6181890  58.5391500  55.6268790  53.7034350
  59.7971090  56.1840510  53.0717880  66.0000590  60.1473350  63.5960920
  65.1719220  60.2166440  63.1211050  66.5951070  60.7327660  63.1276750
  63.5216040  60.7558130  57.1249980  62.9028460  60.4177680  56.4776280
  63.5040490  60.1117890  57.8329170  62.9642600  56.9342670  64.5415790
  62.5513780  57.7596380  64.7955780  62.2318550  56.3487710  64.3492150
  55.5657090  63.4070130  61.5673670  55.2685380  62.8015600  60.8881450
  56.5156910  63.4447440  61.4563030  63.6542700  66.9802000  65.2296770
  63.1773260  67.7874190  65.0369380  62.9704490  66.3280330  65.3822980
  54.6575520  63.1451820  68.2181470  53.7604050  63.3691790  68.4654870
  54.6828390  63.2686760  67.2692870  61.6980740  59.9944940  54.1322730
  62.1374020  59.1567370  53.9860550  62.4109160  60.6274340  54.2186870
  59.8076120  64.9341010  58.1003970  60.2472030  65.6765340  57.6859360
  59.7463010  65.1767580  59.0242930  55.2827090  65.9586840  69.0023990
  55.2542520  66.3629790  68.1352420  55.1192060  65.0297200  68.8395590
  65.2797880  51.2487750  52.4463770  64.9670540  51.3414580  53.3462840
  66.0410350  51.8268780  52.3961200  67.2341910  66.7413940  70.2988160
  67.7101630  67.2196830  70.9777240  67.8549070  66.6731430  69.5733660
  66.6375160  63.9326790  67.4588170  66.7638220  63.6938670  66.5405350
  66.6796540  63.1011330  67.9310250  60.4991900  67.6354790  66.0282980
  61.0136570  67.5462800  66.8305410  59.6560980  67.9814490  66.3210890
  62.4746300  67.9210130  55.4566980  62.3147440  67.6313070  56.3548810
  62.3093010  67.1450260  54.9212210  54.9534680  67.7008660  57.2338600
  54.7777160  66.7844200  57.0206400  54.0990420  68.0595950  57.4736400
  62.1772430  65.4297690  54.0164980  61.4837590  65.4274980  53.3567260
  62.9195290  65.0057010  53.5859150  61.7422360  67.0560400  58.0913470
  62.1979310  66.2749780  58.4052090  62.0814880  67.7667220  58.6354650
  66.4899170  55.9859250  68.4237910  65.8743440  56.4938920  67.8953370
  66.1695590  55.0857580  68.3663850  57.3802500  51.5793320  55.1670610
  56.7556680  51.5753190  55.8923920  57.2932620  50.7124280  54.7706580
  61.2855660  57.0879560  56.6136680  60.6864550  57.8115360  56.4300300
  61.8335270  57.0256340  55.8313130  59.8920530  55.7243100  58.6439960
  60.2850100  56.0415300  57.8308650  60.2537380  54.8454980  58.7584480
  56.9773210  55.9915130  54.1349990  57.0986030  55.9501610  55.0835810
  56.5921720  56.8539280  53.9796720  55.9894710  58.3016270  53.5333290
  55.4211610  57.8534520  52.9069200  56.6983710  58.6609050  52.9998440
  64.3672330  51.1814710  67.9900060  64.6918100  50.4504370  68.5158040
  64.4028840  50.8628350  67.0881050  51.0663890  62.2028290  67.4100020
  50.6818680  61.5621960  68.0082980  51.3776080  62.9064410  67.9794750
  53.5342190  62.2974460  55.8059700  52.7604450  61.7572080  55.6458420
  54.2636820  61.7781070  55.4677460  64.2930170  61.2939820  61.5986090
  65.0129290  61.7895110  61.2082200  64.0911990  60.6157710  60.9539960
  59.7540110  52.6877780  55.7415480  58.9404720  52.1890950  55.6660790
  59.5602060  53.5276030  55.3251830  59.6748970  61.3648880  67.4855090
  59.6086280  60.4444550  67.2312680  59.0454110  61.4624320  68.1999730
  62.4688500  57.0597430  54.0377640  63.3568120  57.3714660  53.8628980
  62.4393590  56.1869680  53.6458220  53.5779590  61.9654840  59.4438510
  54.0958260  61.1623100  59.3895400  53.1263610  61.9033980  60.2855340
  58.4649090  63.2321120  54.7165810  58.8064790  63.9763350  54.2209130
  57.6361800  63.5452240  55.0790640  59.6065700  64.1869450  67.2358890
  59.6210240  63.2550410  67.0177800  58.8990800  64.2729210  67.8748660
  64.7402770  58.3709270  53.5057500  64.6566490  58.8023490  52.6553940
  65.4596960  58.8307620  53.9384320  65.8176910  60.8276790  66.5827470
  65.0925100  61.4205570  66.3856860  66.3452370  60.8200330  65.7840840
  65.7690020  65.2251530  56.2339630  65.1266180  64.5707150  56.5083350
  65.3820680  65.6306620  55.4580300  61.3476500  62.5536960  60.0811320
  61.7000320  61.9565090  59.4212690  60.4638830  62.2281190  60.2519570
  57.4339780  63.3134650  57.4881730  58.1210910  63.8603860  57.8689320
  56.6472200  63.8575380  57.5231340  56.7366990  60.3180680  57.1007090
  57.1929770  61.1285930  57.3267280  56.3855200  60.0003820  57.9325580
  59.0399600  65.8287020  64.3299390  59.6841820  66.0346400  65.0072810
  59.4029040  65.0675420  63.8770240  60.3131680  63.8319370  63.0476840
  60.9553910  63.1312530  63.1609010  60.8381030  64.6117810  62.8673730
  64.1587400  64.1167990  52.7715980  63.9324980  63.3998430  53.3640620
  63.7683600  63.8680430  51.9337730  62.0869300  64.6314270  66.2512900
  62.4225540  65.2180960  66.9290820  61.1669640  64.5006980  66.4810690
  63.7403650  62.0339930  54.4330140  63.4525350  62.4952620  55.2208020
  64.5355820  61.5737700  54.7014360  49.9245290  66.4089710  68.0202840
  50.0336410  65.4684450  67.8798230  49.2725850  66.6744460  67.3716570
  57.9157880  64.6805600  69.4200960  57.5954750  63.9614840  69.9646650
  57.2416240  65.3560670  69.4937020  55.9572050  65.5266050  54.3634110
  55.9482150  66.2595740  53.7478620  55.0370410  65.2797630  54.4561070
  64.4973510  53.8688700  55.5925320  63.8686670  53.9734370  54.8783550
  64.0025430  54.0885480  56.3819200  58.9431650  65.5894290  53.0259300
  59.0443630  65.3858280  52.0961280  58.0433390  65.3352570  53.2307080
  56.4657540  56.1474650  57.0083200  55.7573690  56.6160990  57.4496810
  56.7502020  55.4896660  57.6428390  60.4972970  52.8725310  58.4478990
  60.3740750  52.8911440  57.4988500  61.4457530  52.9204250  58.5677390
  57.5849760  68.1080610  57.7206970  57.8391260  68.0702000  56.7986340
  56.6362240  67.9813940  57.7135220  54.6692560  54.4559730  54.3833910
  55.5183090  54.8929880  54.3174100  54.3023830  54.7679990  55.2105970
  65.2980330  53.7839310  65.8504120  64.7953930  54.5244710  66.1897930
  66.1136990  54.1723310  65.5340910  63.5902340  59.0272490  59.2965480
  62.6492480  59.0422720  59.4713170  63.9046410  58.2408450  59.7425780
  53.5683980  60.7092090  52.8569440  54.3347250  60.5973450  53.4194870
  53.6458670  60.0130060  52.2046210  65.5927920  66.1981340  60.9719740
  65.7175340  67.0212510  61.4443550  66.4593480  65.9872070  60.6243890
  53.0645450  68.2912550  60.6436870  53.8007930  67.7428010  60.9145440
  53.4486370  69.1568560  60.5042860  52.0703730  67.4758620  69.8322450
  52.8716460  67.7970670  70.2457850  51.5555550  67.1154200  70.5542360
  56.1747760  67.4642860  52.4662440  56.9676370  67.7531690  52.0144230
  55.6552110  67.0335030  51.7874920  60.9068360  63.5838490  69.7797860
  60.3006520  63.6070090  69.0393610  60.6022470  62.8521530  70.3165110
  62.3368730  67.3118780  68.3907270  63.2890480  67.2276800  68.3407510
  62.1896950  67.9760490  69.0641060  65.2277930  66.6912990  53.8899180
  64.9419440  66.2778130  53.0753360  65.0297480  67.6200700  53.7699700
  49.7901540  59.9632080  68.7758500  50.2940560  59.3839360  69.3474730
  49.0508960  60.2472310  69.3134870  56.6925160  62.6846270  52.3304790
  56.5875800  62.0698620  53.0566170  56.5249380  62.1612160  51.5467800
  56.8439480  61.3703070  68.3094020  56.0785150  61.9388070  68.2248690
  57.0255440  61.0779280  67.4162250  59.9327890  61.7466300  52.9346780
  59.3837990  62.1935600  53.5789520  60.5547150  61.2415550  53.4584450
  63.9862830  63.1008400  68.8669040  64.7272300  63.4384160  68.3636500
  63.2235510  63.2700460  68.3138810  55.6003010  60.7057220  54.8312080
  56.0219430  60.5397090  55.6743470  55.7253850  59.8957450  54.3367220
  58.1130650  59.7294830  52.0789180  58.6336310  59.0143850  51.7130330
  58.7599050  60.3680700  52.3789690  62.6608490  61.1523230  67.4024250
  63.0749510  61.3068310  68.2514670  61.7259490  61.2778450  67.5650030
  63.1330660  58.4919390  69.4063400  63.7151430  57.7371710  69.3183880
  63.3092430  59.0226830  68.6294880  59.7587620  58.8359890  66.7558020
  59.8783830  58.2401030  67.4952860  60.6181620  58.8729580  66.3359320
  62.0975520  59.3897080  65.3320530  61.5710740  59.9139700  64.7285670
  62.4406860  60.0224470  65.9630260  54.4961910  56.7790450  51.7770240
  54.2950970  55.9157810  52.1383580  54.3253960  56.6923810  50.8391840
  55.2731140  67.4096720  66.4877910  54.7352230  68.1342780  66.1686610
  55.5265100  66.9327060  65.6975250  61.9750220  51.5898680  54.3057120
  62.2552510  50.7466580  54.6616540  61.2015950  51.8221790  54.8195870
  58.1293350  68.6447930  66.7464560  58.0552050  69.5483070  67.0536930
  57.2272190  68.3259830  66.7186630  56.5129640  52.8225690  52.7504320
  56.1651640  52.1449680  52.1706770  56.7142410  52.3615200  53.5647710
  58.6778680  67.8106440  54.3690920  59.5729470  68.1491410  54.3909680
  58.7096310  67.0885850  53.7415200  54.1282560  64.3031530  57.7100150
  53.8278100  64.1796500  58.6104060  54.0220050  63.4440120  57.3015880
  50.0210850  66.8393110  62.7879810  49.5841840  67.0193910  63.6203960
  50.5888530  67.5967730  62.6461530  65.6573030  66.3410110  67.0757120
  65.0575020  66.4002670  66.3321040  65.7866930  65.4015090  67.2053970
  66.8974480  64.0827930  52.4126830  66.0667440  64.1504580  52.8834060
  67.0746310  64.9732050  52.1093690  66.3530940  60.8275410  54.9161030
  67.1149850  61.3972060  55.0220720  66.3685310  60.2602610  55.6869340
  67.3590910  61.6825510  59.7602960  67.7299740  60.8992830  59.3538930
  67.9992840  62.3714610  59.5820260  64.3424670  63.0662090  65.1733280
  63.5284510  63.4959250  65.4359070  64.7498870  63.6780500  64.5602330
  66.4050110  61.1209780  52.0733550  66.6798950  62.0288660  51.9452770
  66.2160850  61.0572310  53.0095540  62.8025720  54.1454630  53.3687180
  63.2210600  53.9585610  52.5283840  62.4961780  53.2933680  53.6790110
  66.3015450  59.0578770  57.0662980  65.9259050  58.2906700  56.6344270
  65.5718570  59.4401470  57.5537910  65.6915070  58.2050290  66.7002500
  65.4601160  57.9763040  65.8000450  65.9519620  59.1249840  66.6547390
  65.5766410  57.2836260  60.3670220  66.1003890  56.7898910  59.7360390
  66.1625830  57.4186620  61.1117790  65.7556130  57.3676130  63.8889770
  64.8058840  57.3339670  64.0034760  65.9369140  58.2776240  63.6539540
  65.0666380  56.5409610  56.3062630  65.5625500  56.3080480  57.0911510
  64.8682450  55.7021450  55.8900270  66.4953540  55.1770560  58.8400310
  66.3852820  55.0226600  59.7782580  67.2561130  54.6491500  58.5975720
  67.3843810  53.0078480  52.0806450  68.3093120  52.8759660  51.8724740
  67.3619600  53.0871300  53.0342900  67.4582300  53.7789140  54.7063160
  66.6633800  53.7134260  55.2356070  67.6625580  54.7139780  54.6948510
  64.4000720  67.8180690  58.7001550  64.9959790  67.4965260  58.0235970
  64.6578870  67.3452510  59.4914820  52.3063290  64.2498600  68.8492180
  52.2632920  63.8791510  69.7306640  52.4374300  65.1876170  68.9894000
  56.0069320  65.8058190  64.4501900  55.7660680  66.0732750  63.5632420
  56.9471960  65.9763920  64.5052760  67.2673480  67.8252570  65.2512540
  66.7731760  68.2221440  64.5339670  66.6586770  67.2001780  65.6449820
  52.1451320  67.1960850  65.9689960  51.5511640  67.0645550  66.7080000
  52.1375160  66.3598990  65.5032060  64.9512930  68.4675990  62.5299280
  64.4915900  69.2191800  62.1557300  64.3225390  67.7482460  62.4714080
  51.7763550  64.5619230  64.9198000  51.0497610  63.9424520  64.8523950
  51.8372700  64.9559840  64.0496080  55.3808650  66.7764230  61.7047410
  55.8973670  66.1651590  61.1795670  56.0306030  67.2793010  62.1958420
  58.1204150  67.6672720  62.5316390  58.4081960  67.4127020  61.6549400
  58.6327370  67.1150080  63.1221960  65.7540800  51.7401260  59.1670810
  65.6929200  50.7962480  59.0201830  66.5332830  51.8481350  59.7124270
  64.8694960  50.8913680  55.1352280  65.0645590  51.7897130  55.4019710
  64.0824830  50.6600760  55.6285230  58.1876510  68.5888820  69.8984590
  59.1143820  68.3533090  69.9420550  58.1726940  69.4160820  69.4170620
  66.4221570  68.1314390  56.8958840  66.5973760  67.4452130  56.2519760
  65.7243140  68.6561440  56.5035510  54.2649220  68.5209230  54.4494150
  54.9968040  68.2368510  53.9018040  54.5242890  68.2822510  55.3393530
  64.7554070  67.8158680  69.7225630  65.5479390  67.3207910  69.5151590
  65.0487220  68.4948820  70.3301240  60.8813730  58.6879620  40.6041680
  60.8007780  57.7734230  40.3333390  60.4678150  59.1846690  39.8981390
  59.0131770  60.4658640  42.4850950  58.2373870  59.9859080  42.7749520
  59.6644700  59.7864290  42.3107110  53.0297600  60.7778450  43.3626710
  52.1982480  60.5227160  43.7623220  53.6378580  60.8489220  44.0984630
  63.0339200  64.8718830  41.2650080  62.5720730  64.1006070  41.5937250
  63.8464750  64.8984900  41.7702530  53.0098860  64.8118540  43.5584730
  53.3126900  63.9216280  43.3794950  53.7542450  65.3688760  43.3306980
  51.4389550  55.7380340  37.1469100  50.5506250  56.0796310  37.0448980
  51.7230740  55.5380660  36.2549930  59.2602510  67.1576840  40.8854070
  58.6413950  67.6134340  40.3148510  60.1154290  67.3128300  40.4843770
  58.4540760  63.1415830  42.4921110  58.3849040  62.2005770  42.3310240
  59.2160620  63.2317240  43.0643680  59.4845930  55.9486210  42.7190040
  59.8610750  55.0758090  42.6063710  59.3865440  56.2844910  41.8280480
  53.6150940  54.3211840  38.1807480  53.7217690  55.2215570  38.4876240
  52.7043300  54.2729810  37.8902130  63.2670050  53.4436650  39.6518380
  64.0879670  52.9533220  39.6943860  63.3004130  54.0334310  40.4050220
  55.4558670  57.2898210  42.5132660  55.9636890  57.7879180  43.1537680
  55.9871910  56.5133410  42.3372020  67.5569600  55.4603400  46.2162010
  66.8521770  55.8485110  45.6977120  67.8227520  56.1553690  46.8182940
  53.7394770  51.9296770  46.7796080  53.7413210  52.4469160  45.9741980
  52.9099080  51.4526950  46.7566010  60.1265860  62.0416080  38.2785980
  59.5083130  62.5065530  37.7148700  60.6389110  62.7343560  38.6955490
  54.9897620  61.5691950  44.9569580  54.6567000  62.1960870  45.5990650
  55.1664300  62.0953830  44.1771250  63.5031530  55.3837030  42.4245920
  62.7987100  55.6721920  43.0049030  63.8643690  56.1937140  42.0645480
  54.2016720  63.5372750  46.7718760  54.8190720  64.2123830  46.4903210
  53.3409840  63.9460730  46.6806260  49.4949060  62.7272610  35.6525610
  49.1177040  63.2159710  34.9210510  49.7522130  63.3997890  36.2832140
  65.1194310  65.0012160  44.6873400  64.4357830  65.6711270  44.6790070
  65.6588600  65.1992810  43.9218260  66.5718450  54.8291820  42.8155130
  65.6243360  54.8630800  42.9470560  66.8968440  55.6430770  43.2004490
  57.1037990  51.1289000  41.1111120  57.4112970  50.5735890  40.3946620
  56.1738690  51.2633460  40.9284110  62.6553050  66.8456290  43.4018580
  62.6680210  66.4418580  42.5340840  62.1028270  67.6203580  43.2980010
  63.9498470  63.5672510  38.4908750  63.8394800  62.6246840  38.6158170
  63.9466720  63.9288150  39.3771510  62.0538490  61.7486130  44.7301190
  62.4707280  61.5346240  43.8954650  62.7778310  62.0058920  45.3009810
  59.4918750  59.1937830  37.8471240  58.5648030  59.1275210  38.0759710
  59.6443570  60.1317960  37.7326480  59.4787830  55.4654830  34.8438400
  58.5391500  55.6268790  34.9290860  59.7971090  56.1840510  34.2974390
  66.0000590  60.1473350  44.8217430  65.1719220  60.2166440  44.3467560
  66.5951070  60.7327660  44.3533260  63.5216040  60.7558130  38.3506490
  62.9028460  60.4177680  37.7032790  63.5040490  60.1117890  39.0585680
  62.9642600  56.9342670  45.7672300  62.5513780  57.7596380  46.0212290
  62.2318550  56.3487710  45.5748660  55.0975390  59.7202570  40.6290970
  54.6932390  59.0079820  40.1336870  55.1838510  59.3755810  41.5179010
  55.5657090  63.4070130  42.7930180  55.2685380  62.8015600  42.1137960
  56.5156910  63.4447440  42.6819540  53.8104010  56.4945780  44.4090010
  54.3618600  56.6041120  43.6343260  54.3247520  56.8683380  45.1245240
  63.6542700  66.9802000  46.4553280  63.1773260  67.7874190  46.2625890
  62.9704490  66.3280330  46.6079490  54.6575520  63.1451820  49.4437980
  53.7604050  63.3691790  49.6911380  54.6828390  63.2686760  48.4949380
  61.6980740  59.9944940  35.3579240  62.1374020  59.1567370  35.2117060
  62.4109160  60.6274340  35.4443380  53.4846740  60.0165140  48.0195350
  53.3454510  60.8887940  48.3882750  52.6028100  59.6737950  47.8743290
  59.8076120  64.9341010  39.3260480  60.2472030  65.6765340  38.9115870
  59.7463010  65.1767580  40.2499440  55.2827090  65.9586840  50.2280500
  55.2542520  66.3629790  49.3608930  55.1192060  65.0297200  50.0652100
  65.2797880  51.2487750  33.6720280  64.9670540  51.3414580  34.5719350
  66.0410350  51.8268780  33.6217710  51.7980020  58.6147550  38.1297620
  51.6777620  59.3409640  37.5178890  51.4880910  57.8450460  37.6525530
  67.2341910  66.7413940  51.5244670  67.7101630  67.2196830  52.2033750
  67.8549070  66.6731430  50.7990170  49.4365390  61.7862690  43.9366260
  49.5145810  61.9211460  42.9921980  50.0507070  61.0778580  44.1294380
  50.6813020  63.4862880  40.3472440  50.2741100  63.6277470  39.4926040
  51.5726030  63.2023040  40.1443650  66.6375160  63.9326790  48.6844680
  66.7638220  63.6938670  47.7661860  66.6796540  63.1011330  49.1566760
  60.4991900  67.6354790  47.2539490  61.0136570  67.5462800  48.0561920
  59.6560980  67.9814490  47.5467400  62.4746300  67.9210130  36.6823490
  62.3147440  67.6313070  37.5805320  62.3093010  67.1450260  36.1468720
  54.9534680  67.7008660  38.4595110  54.7777160  66.7844200  38.2462910
  54.0990420  68.0595950  38.6992910  62.1772430  65.4297690  35.2421490
  61.4837590  65.4274980  34.5823770  62.9195290  65.0057010  34.8115660
  61.7422360  67.0560400  39.3169980  62.1979310  66.2749780  39.6308600
  62.0814880  67.7667220  39.8611160  66.4899170  55.9859250  49.6494420
  65.8743440  56.4938920  49.1209880  66.1695590  55.0857580  49.5920360
  49.4924910  62.8276860  46.4760720  49.6555950  62.3582220  45.6580090
  49.9577360  62.3200420  47.1409560  54.2643680  51.9582620  41.5121290
  53.8211830  52.7392160  41.1805810  54.8228670  52.2812510  42.2192230
  58.5513490  54.8251140  47.1156610  58.0892860  55.0334160  47.9276550
  58.1491600  54.0110490  46.8127280  63.5518000  56.0460090  48.2453270
  62.7011590  55.7465840  48.5662340  63.3919790  56.2902100  47.3337090
  60.6467710  57.5461840  50.3452060  60.9721120  56.7125590  50.0054290
  61.4348040  58.0690360  50.4930390  57.3802500  51.5793320  36.3927120
  56.7556680  51.5753190  37.1180430  57.2932620  50.7124280  35.9963090
  56.3019580  52.5029950  43.3710890  56.5991910  53.4092780  43.2902910
  56.8505140  52.0148730  42.7570460  54.0557900  57.0816190  39.2402540
  53.8298820  56.8653360  40.1449160  53.2750430  57.5144650  38.8948510
  61.2855660  57.0879560  37.8393190  60.6864550  57.8115360  37.6556810
  61.8335270  57.0256340  37.0569640  56.4957110  57.9801770  49.9062810
  56.4000710  57.0396500  49.7563210  57.3389090  58.2016840  49.5110880
  59.8920530  55.7243100  39.8696470  60.2850100  56.0415300  39.0565160
  60.2537380  54.8454980  39.9840990  58.2012700  54.4750410  51.1293330
  57.5111020  54.2822610  51.7639420  58.9445000  54.7585050  51.6617630
  49.1154930  56.2564020  33.3029390  49.0329600  57.1994780  33.4444380
  48.7637990  56.1138930  32.4241740  60.4775670  58.3148850  43.9647250
  59.7456790  58.8235660  44.3137350  60.0800010  57.4978830  43.6636030
  56.9153060  54.9903050  42.3699740  56.9189120  54.5493000  41.5204280
  57.8104180  55.3120380  42.4771560  56.9773210  55.9915130  35.3606500
  57.0986030  55.9501610  36.3092320  56.5921720  56.8539280  35.2053230
  60.9401580  53.7682530  43.3770190  60.9574320  54.2191180  44.2212040
  60.6917160  52.8688170  43.5903630  55.9894710  58.3016270  34.7589800
  55.4211610  57.8534520  34.1325710  56.6983710  58.6609050  34.2254950
  64.3672330  51.1814710  49.2156570  64.6918100  50.4504370  49.7414550
  64.4028840  50.8628350  48.3137560  51.0663890  62.2028290  48.6356530
  50.6818680  61.5621960  49.2339490  51.3776080  62.9064410  49.2051260
  57.2161030  59.0504830  44.1165150  57.5831160  58.5763400  44.8626490
  57.0266090  59.9246400  44.4573490  55.0060400  58.0913470  46.4349360
  54.7017470  58.9705450  46.6599720  55.9606860  58.1513260  46.4706800
  53.5342190  62.2974460  37.0316210  52.7604450  61.7572080  36.8714930
  54.2636820  61.7781070  36.6933970  64.2930170  61.2939820  42.8242600
  65.0129290  61.7895110  42.4338710  64.0911990  60.6157710  42.1796470
  59.7540110  52.6877780  36.9671990  58.9404720  52.1890950  36.8917300
  59.5602060  53.5276030  36.5508340  59.6748970  61.3648880  48.7111600
  59.6086280  60.4444550  48.4569190  59.0454110  61.4624320  49.4256240
  62.4688500  57.0597430  35.2634150  63.3568120  57.3714660  35.0885490
  62.4393590  56.1869680  34.8714730  53.5779590  61.9654840  40.6695020
  54.0958260  61.1623100  40.6151910  53.1263610  61.9033980  41.5111850
  58.4649090  63.2321120  35.9422320  58.8064790  63.9763350  35.4465640
  57.6361800  63.5452240  36.3047150  54.2637250  59.3900450  50.4660270
  53.9637390  59.5357630  49.5688090  55.0348490  58.8305740  50.3733660
  59.6065700  64.1869450  48.4615400  59.6210240  63.2550410  48.2434310
  58.8990800  64.2729210  49.1005170  64.7402770  58.3709270  34.7314010
  64.6566490  58.8023490  33.8810450  65.4596960  58.8307620  35.1640830
  65.8176910  60.8276790  47.8083980  65.0925100  61.4205570  47.6113370
  66.3452370  60.8200330  47.0097350  65.7690020  65.2251530  37.4596140
  65.1266180  64.5707150  37.7339860  65.3820680  65.6306620  36.6836810
  61.3476500  62.5536960  41.3067830  61.7000320  61.9565090  40.6469200
  60.4638830  62.2281190  41.4776080  57.4339780  63.3134650  38.7138240
  58.1210910  63.8603860  39.0945830  56.6472200  63.8575380  38.7487850
  49.5732180  58.9307470  34.2055320  50.4427030  59.2132270  34.4891240
  49.0822500  59.7443340  34.0904130  56.7366990  60.3180680  38.3263600
  57.1929770  61.1285930  38.5523790  56.3855200  60.0003820  39.1582090
  59.0399600  65.8287020  45.5555900  59.6841820  66.0346400  46.2329320
  59.4029040  65.0675420  45.1026750  52.6378770  50.6618330  38.7986120
  52.5093400  50.6536230  39.7471040  51.8140790  51.0001420  38.4477130
  60.3131680  63.8319370  44.2733350  60.9553910  63.1312530  44.3865520
  60.8381030  64.6117810  44.0930240  64.1587400  64.1167990  33.9972490
  63.9324980  63.3998430  34.5897130  63.7683600  63.8680430  33.1594240
  62.0869300  64.6314270  47.4769410  62.4225540  65.2180960  48.1547330
  61.1669640  64.5006980  47.7067200  49.9403430  68.1434850  34.7716950
  50.3001070  68.7424190  34.1174220  49.7995770  68.6894740  35.5451980
  63.7403650  62.0339930  35.6586650  63.4525350  62.4952620  36.4464530
  64.5355820  61.5737700  35.9270870  49.9245290  66.4089710  49.2459350
  50.0336410  65.4684450  49.1054740  49.2725850  66.6744460  48.5973080
  57.9157880  64.6805600  50.6457470  57.5954750  63.9614840  51.1903160
  57.2416240  65.3560670  50.7193530  55.9572050  65.5266050  35.5890620
  55.9482150  66.2595740  34.9735130  55.0370410  65.2797630  35.6817580
  51.5578690  60.7480940  36.3337380  50.9506640  61.4879840  36.3432680
  52.0328040  60.8380300  35.5075580  61.1311480  54.9131760  46.0094270
  61.4992300  54.0926970  46.3373840  60.2709680  54.9733650  46.4249920
  64.4973510  53.8688700  36.8181830  63.8686670  53.9734370  36.1040060
  64.0025430  54.0885480  37.6075710  58.9431650  65.5894290  34.2515810
  59.0443630  65.3858280  33.3217790  58.0433390  65.3352570  34.4563590
  56.4657540  56.1474650  38.2339710  55.7573690  56.6160990  38.6753320
  56.7502020  55.4896660  38.8684900  58.0913470  57.5671350  46.2332240
  58.5898720  58.0417170  46.8984090  58.2336420  56.6434870  46.4402270
  60.4972970  52.8725310  39.6735500  60.3740750  52.8911440  38.7245010
  61.4457530  52.9204250  39.7933900  57.5849760  68.1080610  38.9463480
  57.8391260  68.0702000  38.0242850  56.6362240  67.9813940  38.9391730
  54.6692560  54.4559730  35.6090420  55.5183090  54.8929880  35.5430610
  54.3023830  54.7679990  36.4362480  65.2980330  53.7839310  47.0760630
  64.7953930  54.5244710  47.4154440  66.1136990  54.1723310  46.7597420
  63.5902340  59.0272490  40.5221990  62.6492480  59.0422720  40.6969680
  63.9046410  58.2408450  40.9682290  53.5683980  60.7092090  34.0825950
  54.3347250  60.5973450  34.6451380  53.6458670  60.0130060  33.4302720
  52.2630740  58.1417160  34.7658840  52.3434330  57.1944670  34.8776240
  53.1550490  58.4724040  34.8719500  65.5927920  66.1981340  42.1976250
  65.7175340  67.0212510  42.6700060  66.4593480  65.9872070  41.8500400
  53.0645450  68.2912550  41.8693380  53.8007930  67.7428010  42.1401950
  53.4486370  69.1568560  41.7299370  49.9490930  64.3586120  37.7434890
  49.0230710  64.6007260  37.7340300  50.4147360  65.1860380  37.6219640
  52.0703730  67.4758620  51.0578960  52.8716460  67.7970670  51.4714360
  51.5555550  67.1154200  51.7798870  56.1747760  67.4642860  33.6918950
  56.9676370  67.7531690  33.2400740  55.6552110  67.0335030  33.0131430
  60.9068360  63.5838490  51.0054370  60.3006520  63.6070090  50.2650120
  60.6022470  62.8521530  51.5421620  62.3368730  67.3118780  49.6163780
  63.2890480  67.2276800  49.5664020  62.1896950  67.9760490  50.2897570
  65.2277930  66.6912990  35.1155690  64.9419440  66.2778130  34.3009870
  65.0297480  67.6200700  34.9956210  56.6925160  62.6846270  33.5561300
  56.5875800  62.0698620  34.2822680  56.5249380  62.1612160  32.7724310
  56.8439480  61.3703070  49.5350530  56.0785150  61.9388070  49.4505200
  57.0255440  61.0779280  48.6418760  59.9327890  61.7466300  34.1603290
  59.3837990  62.1935600  34.8046030  60.5547150  61.2415550  34.6840960
  63.9862830  63.1008400  50.0925550  64.7272300  63.4384160  49.5893010
  63.2235510  63.2700460  49.5395320  55.6003010  60.7057220  36.0568590
  56.0219430  60.5397090  36.8999980  55.7253850  59.8957450  35.5623730
  53.7630430  56.6853770  48.8639570  53.2326890  56.1944720  48.2362910
  54.4318500  57.1137970  48.3297500  58.1130650  59.7294830  33.3045690
  58.6336310  59.0143850  32.9386840  58.7599050  60.3680700  33.6046200
  62.6608490  61.1523230  48.6280760  63.0749510  61.3068310  49.4771180
  61.7259490  61.2778450  48.7906540  63.1330660  58.4919390  50.6319910
  63.7151430  57.7371710  50.5440390  63.3092430  59.0226830  49.8551390
  54.2502730  53.6516140  48.9436860  54.1559600  53.0336890  48.2187730
  53.6700120  54.3782430  48.7166770  57.0164170  52.2089380  45.9764250
  56.5681470  52.2313640  45.1309800  56.3829370  51.8108400  46.5734550
  57.4223720  61.1043710  46.5976690  57.8411830  61.9476440  46.4252930
  56.5032350  61.2415750  46.3683470  59.7587620  58.8359890  47.9814530
  59.8783830  58.2401030  48.7209370  60.6181620  58.8729580  47.5615830
  62.0975520  59.3897080  46.5577040  61.5710740  59.9139700  45.9542180
  62.4406860  60.0224470  47.1886770  54.4961910  56.7790450  33.0026750
  54.2950970  55.9157810  33.3640090  54.3253960  56.6923810  32.0648350
  55.2731140  67.4096720  47.7134420  54.7352230  68.1342780  47.3943120
  55.5265100  66.9327060  46.9231760  56.5256390  55.3781240  49.2390350
  57.1156080  55.0697090  49.9268170  55.7076630  54.9060990  49.3950250
  61.3449820  54.9947050  49.4723370  60.6565340  54.3328590  49.4073360
  62.0655840  54.5485320  49.9171830  61.9750220  51.5898680  35.5313630
  62.2552510  50.7466580  35.8873050  61.2015950  51.8221790  36.0452380
  53.2944710  53.8791070  32.9904630  53.5970610  53.8858500  32.0823780
  54.0339300  53.5288930  33.4872290  58.1293350  68.6447930  47.9721070
  58.0552050  69.5483070  48.2793440  57.2272190  68.3259830  47.9443140
  56.5129640  52.8225690  33.9760830  56.1651640  52.1449680  33.3963280
  56.7142410  52.3615200  34.7904220  58.6778680  67.8106440  35.5947430
  59.5729470  68.1491410  35.6166190  58.7096310  67.0885850  34.9671710
  52.3174840  63.1833490  33.8234430  52.7549710  63.7263160  34.4792010
  52.8022570  62.3580440  33.8330770  49.5320640  65.9722520  41.2754690
  49.8623650  65.1043580  41.0433330  49.9611640  66.1781040  42.1059650
  54.1282560  64.3031530  38.9356660  53.8278100  64.1796500  39.8360570
  54.0220050  63.4440120  38.5272390  50.0210850  66.8393110  44.0136320
  49.5841840  67.0193910  44.8460470  50.5888530  67.5967730  43.8718040
  65.6573030  66.3410110  48.3013630  65.0575020  66.4002670  47.5577550
  65.7866930  65.4015090  48.4310480  66.8974480  64.0827930  33.6383340
  66.0667440  64.1504580  34.1090570  67.0746310  64.9732050  33.3350200
  66.3530940  60.8275410  36.1417540  67.1149850  61.3972060  36.2477230
  66.3685310  60.2602610  36.9125850  49.8535280  59.3513340  40.3725200
  49.1984120  59.0824980  39.7284900  50.6913230  59.2417820  39.9227180
  67.3590910  61.6825510  40.9859470  67.7299740  60.8992830  40.5795440
  67.9992840  62.3714610  40.8076770  64.3424670  63.0662090  46.3989790
  63.5284510  63.4959250  46.6615580  64.7498870  63.6780500  45.7858840
  66.4050110  61.1209780  33.2990060  66.6798950  62.0288660  33.1709280
  66.2160850  61.0572310  34.2352050  62.8025720  54.1454630  34.5943690
  63.2210600  53.9585610  33.7540350  62.4961780  53.2933680  34.9046620
  66.3015450  59.0578770  38.2919490  65.9259050  58.2906700  37.8600780
  65.5718570  59.4401470  38.7794420  50.8911210  59.7365910  44.9128540
  51.2584250  59.6493310  45.7924560  50.3222030  58.9732460  44.8135400
  65.6915070  58.2050290  47.9259010  65.4601160  57.9763040  47.0256960
  65.9519620  59.1249840  47.8803900  64.1303140  53.4306720  50.7038710
  65.0073320  53.4390120  51.0872710  64.1423980  52.6937560  50.0931060
  49.0673360  56.5612270  36.3150530  48.1637440  56.8242470  36.1402190
  49.5513980  56.8323440  35.5350490  65.5766410  57.2836260  41.5926730
  66.1003890  56.7898910  40.9616900  66.1625830  57.4186620  42.3374300
  65.7556130  57.3676130  45.1146280  64.8058840  57.3339670  45.2291270
  65.9369140  58.2776240  44.8796050  51.6100570  55.6177810  34.2244910
  52.3192270  55.1961030  33.7392190  50.8940510  55.6853040  33.5928260
  51.2574730  51.6717140  33.2647560  51.9802860  52.2126080  33.5828780
  51.5299250  51.3980560  32.3889100  65.0666380  56.5409610  37.5319140
  65.5625500  56.3080480  38.3168020  64.8682450  55.7021450  37.1156780
  66.4953540  55.1770560  40.0656820  66.3852820  55.0226600  41.0039090
  67.2561130  54.6491500  39.8232230  64.8419260  51.1164690  46.5239820
  65.4791480  51.7298830  46.8899010  64.9894150  51.1525350  45.5789050
  67.3843810  53.0078480  33.3062960  68.3093120  52.8759660  33.0981250
  67.3619600  53.0871300  34.2599410  67.4582300  53.7789140  35.9319670
  66.6633800  53.7134260  36.4612580  67.6625580  54.7139780  35.9205020
  64.4000720  67.8180690  39.9258060  64.9959790  67.4965260  39.2492480
  64.6578870  67.3452510  40.7171330  52.3063290  64.2498600  50.0748690
  52.2632920  63.8791510  50.9563150  52.4374300  65.1876170  50.2150510
  56.0069320  65.8058190  45.6758410  55.7660680  66.0732750  44.7888930
  56.9471960  65.9763920  45.7309270  58.2123740  52.2690880  49.4314920
  58.1512630  52.8612710  50.1810330  59.1524120  52.1616840  49.2865180
  60.8498300  51.9260940  49.0707210  61.4638710  52.2440230  48.4088290
  61.3947860  51.4409530  49.6903070  67.2673480  67.8252570  46.4769050
  66.7731760  68.2221440  45.7596180  66.6586770  67.2001780  46.8706330
  51.3719560  50.6055200  49.1846270  51.9202550  50.4243250  48.4212380
  51.4374870  49.8149310  49.7202580  52.1451320  67.1960850  47.1946470
  51.5511640  67.0645550  47.9336510  52.1375160  66.3598990  46.7288570
  61.5906340  50.4893080  45.3976500  60.7166180  50.8228190  45.1949430
  61.4817090  50.0166260  46.2228370  62.4978320  52.6963950  46.7818220
  62.1691680  51.8815710  46.4019950  63.4460620  52.6533760  46.6583910
  64.9512930  68.4675990  43.7555790  64.4915900  69.2191800  43.3813810
  64.3225390  67.7482460  43.6970590  51.7763550  64.5619230  46.1454510
  51.0497610  63.9424520  46.0780460  51.8372700  64.9559840  45.2752590
  55.3808650  66.7764230  42.9303920  55.8973670  66.1651590  42.4052180
  56.0306030  67.2793010  43.4214930  58.1204150  67.6672720  43.7572900
  58.4081960  67.4127020  42.8805910  58.6327370  67.1150080  44.3478470
  59.3381160  51.4062920  44.3369410  58.5552950  51.8808420  44.6166170
  59.0444090  50.5017750  44.2282590  63.8902230  52.1086020  42.3818500
  64.3310320  52.0531120  41.5340100  63.6209820  53.0244030  42.4528680
  65.7540800  51.7401260  40.3927320  65.6929200  50.7962480  40.2458340
  66.5332830  51.8481350  40.9380780  50.0593550  67.8793620  39.3551270
  49.8915590  67.2464300  40.0533160  49.1928060  68.0853020  39.0045460
  57.2235380  53.8249670  39.8485440  56.4109890  53.4506560  39.5081320
  57.7277020  53.0694750  40.1506630  61.7260360  50.4892120  41.0868510
  62.3289730  51.0612330  41.5617030  60.9853350  51.0531560  40.8642410
  64.8694960  50.8913680  36.3608790  65.0645590  51.7897130  36.6276220
  64.0824830  50.6600760  36.8541740  51.6656250  66.5726850  36.8001410
  51.1403870  66.9534880  36.0963370  51.5900830  67.1977620  37.5211120
  53.0546720  52.2374450  35.3985100  53.5839480  51.4504250  35.2693050
  53.6875040  52.9165640  35.6320630  55.2484560  51.9749590  38.4530490
  54.6187300  51.2736900  38.6200620  54.7089700  52.7353720  38.2363650
  58.1876510  68.5888820  51.1241100  59.1143820  68.3533090  51.1677060
  58.1726940  69.4160820  50.6427130  66.4221570  68.1314390  38.1215350
  66.5973760  67.4452130  37.4776270  65.7243140  68.6561440  37.7292020
  55.3740120  51.2533570  50.8882980  55.0924390  51.7567170  50.1243800
  55.7559820  50.4555320  50.5225110  54.2649220  68.5209230  35.6750660
  54.9968040  68.2368510  35.1274550  54.5242890  68.2822510  36.5650040
  53.4264010  64.6373960  35.6796990  52.7972890  65.1059060  36.2282820
  53.5411840  63.7923180  36.1143180  61.9755580  50.6687150  51.4663450
  61.8621030  50.9881760  52.3614970  62.7925320  51.0699660  51.1700730
  64.7554070  67.8158680  50.9482140  65.5479390  67.3207910  50.7408100
  65.0487220  68.4948820  51.5557750  60.8813730  58.6879620  21.8298190
  60.8007780  57.7734230  21.5589900  60.4678150  59.1846690  21.1237900
  59.0131770  60.4658640  23.7107460  58.2373870  59.9859080  24.0006030
  59.6644700  59.7864290  23.5363620  53.0297600  60.7778450  24.5883220
  52.1982480  60.5227160  24.9879730  53.6378580  60.8489220  25.3241140
  63.0339200  64.8718830  22.4906590  62.5720730  64.1006070  22.8193760
  63.8464750  64.8984900  22.9959040  53.0098860  64.8118540  24.7841240
  53.3126900  63.9216280  24.6051460  53.7542450  65.3688760  24.5563490
  51.4389550  55.7380340  18.3725610  50.5506250  56.0796310  18.2705490
  51.7230740  55.5380660  17.4806440  49.4022560  58.3385990  24.2565310
  49.9738670  57.5708190  24.2568950  49.4024100  58.6374750  23.3471920
  59.2602510  67.1576840  22.1110580  58.6413950  67.6134340  21.5405020
  60.1154290  67.3128300  21.7100280  58.4540760  63.1415830  23.7177620
  58.3849040  62.2005770  23.5566750  59.2160620  63.2317240  24.2900190
  50.6447430  53.7470350  26.0434240  50.4650270  52.8496100  26.3237000
  50.2427510  54.2942220  26.7181190  59.4845930  55.9486210  23.9446550
  59.8610750  55.0758090  23.8320220  59.3865440  56.2844910  23.0536990
  53.6150940  54.3211840  19.4063990  53.7217690  55.2215570  19.7132750
  52.7043300  54.2729810  19.1158640  63.2670050  53.4436650  20.8774890
  64.0879670  52.9533220  20.9200370  63.3004130  54.0334310  21.6306730
  51.2634100  56.2430850  24.6516580  51.9444210  56.5069220  25.2703980
  50.9482150  55.4031720  24.9854590  55.4558670  57.2898210  23.7389170
  55.9636890  57.7879180  24.3794190  55.9871910  56.5133410  23.5628530
  67.5569600  55.4603400  27.4418520  66.8521770  55.8485110  26.9233630
  67.8227520  56.1553690  28.0439450  53.7394770  51.9296770  28.0052590
  53.7413210  52.4469160  27.1998490  52.9099080  51.4526950  27.9822520
  60.1265860  62.0416080  19.5042490  59.5083130  62.5065530  18.9405210
  60.6389110  62.7343560  19.9212000  54.9897620  61.5691950  26.1826090
  54.6567000  62.1960870  26.8247160  55.1664300  62.0953830  25.4027760
  63.5031530  55.3837030  23.6502430  62.7987100  55.6721920  24.2305540
  63.8643690  56.1937140  23.2901990  53.4210100  53.6406730  26.0123040
  53.7626910  54.4848780  25.7176910  52.4825910  53.7890470  26.1288380
  54.2016720  63.5372750  27.9975270  54.8190720  64.2123830  27.7159720
  53.3409840  63.9460730  27.9062770  49.4949060  62.7272610  16.8782120
  49.1177040  63.2159710  16.1467020  49.7522130  63.3997890  17.5088650
  65.1194310  65.0012160  25.9129910  64.4357830  65.6711270  25.9046580
  65.6588600  65.1992810  25.1474770  66.5718450  54.8291820  24.0411640
  65.6243360  54.8630800  24.1727070  66.8968440  55.6430770  24.4261000
  57.1037990  51.1289000  22.3367630  57.4112970  50.5735890  21.6203130
  56.1738690  51.2633460  22.1540620  62.6553050  66.8456290  24.6275090
  62.6680210  66.4418580  23.7597350  62.1028270  67.6203580  24.5236520
  63.9498470  63.5672510  19.7165260  63.8394800  62.6246840  19.8414680
  63.9466720  63.9288150  20.6028020  62.0538490  61.7486130  25.9557700
  62.4707280  61.5346240  25.1211160  62.7778310  62.0058920  26.5266320
  59.4918750  59.1937830  19.0727750  58.5648030  59.1275210  19.3016220
  59.6443570  60.1317960  18.9582990  59.4787830  55.4654830  16.0694910
  58.5391500  55.6268790  16.1547370  59.7971090  56.1840510  15.5230900
  66.0000590  60.1473350  26.0473940  65.1719220  60.2166440  25.5724070
  66.5951070  60.7327660  25.5789770  63.5216040  60.7558130  19.5763000
  62.9028460  60.4177680  18.9289300  63.5040490  60.1117890  20.2842190
  62.9642600  56.9342670  26.9928810  62.5513780  57.7596380  27.2468800
  62.2318550  56.3487710  26.8005170  55.0975390  59.7202570  21.8547480
  54.6932390  59.0079820  21.3593380  55.1838510  59.3755810  22.7435520
  55.5657090  63.4070130  24.0186690  55.2685380  62.8015600  23.3394470
  56.5156910  63.4447440  23.9076050  53.8104010  56.4945780  25.6346520
  54.3618600  56.6041120  24.8599770  54.3247520  56.8683380  26.3501750
  63.6542700  66.9802000  27.6809790  63.1773260  67.7874190  27.4882400
  62.9704490  66.3280330  27.8336000  54.6575520  63.1451820  30.6694490
  53.7604050  63.3691790  30.9167890  54.6828390  63.2686760  29.7205890
  61.6980740  59.9944940  16.5835750  62.1374020  59.1567370  16.4373570
  62.4109160  60.6274340  16.6699890  53.4846740  60.0165140  29.2451860
  53.3454510  60.8887940  29.6139260  52.6028100  59.6737950  29.0999800
  59.8076120  64.9341010  20.5516990  60.2472030  65.6765340  20.1372380
  59.7463010  65.1767580  21.4755950  55.2827090  65.9586840  31.4537010
  55.2542520  66.3629790  30.5865440  55.1192060  65.0297200  31.2908610
  65.2797880  51.2487750  14.8976790  64.9670540  51.3414580  15.7975860
  66.0410350  51.8268780  14.8474220  51.7980020  58.6147550  19.3554130
  51.6777620  59.3409640  18.7435400  51.4880910  57.8450460  18.8782040
  67.2341910  66.7413940  32.7501180  67.7101630  67.2196830  33.4290260
  67.8549070  66.6731430  32.0246680  49.4365390  61.7862690  25.1622770
  49.5145810  61.9211460  24.2178490  50.0507070  61.0778580  25.3550890
  50.6813020  63.4862880  21.5728950  50.2741100  63.6277470  20.7182550
  51.5726030  63.2023040  21.3700160  66.6375160  63.9326790  29.9101190
  66.7638220  63.6938670  28.9918370  66.6796540  63.1011330  30.3823270
  60.4991900  67.6354790  28.4796000  61.0136570  67.5462800  29.2818430
  59.6560980  67.9814490  28.7723910  62.4746300  67.9210130  17.9080000
  62.3147440  67.6313070  18.8061830  62.3093010  67.1450260  17.3725230
  54.9534680  67.7008660  19.6851620  54.7777160  66.7844200  19.4719420
  54.0990420  68.0595950  19.9249420  62.1772430  65.4297690  16.4678000
  61.4837590  65.4274980  15.8080280  62.9195290  65.0057010  16.0372170
  61.7422360  67.0560400  20.5426490  62.1979310  66.2749780  20.8565110
  62.0814880  67.7667220  21.0867670  66.4899170  55.9859250  30.8750930
  65.8743440  56.4938920  30.3466390  66.1695590  55.0857580  30.8176870
  49.4924910  62.8276860  27.7017230  49.6555950  62.3582220  26.8836600
  49.9577360  62.3200420  28.3666070  54.2643680  51.9582620  22.7377800
  53.8211830  52.7392160  22.4062320  54.8228670  52.2812510  23.4448740
  58.5513490  54.8251140  28.3413120  58.0892860  55.0334160  29.1533060
  58.1491600  54.0110490  28.0383790  63.5518000  56.0460090  29.4709780
  62.7011590  55.7465840  29.7918850  63.3919790  56.2902100  28.5593600
  60.6467710  57.5461840  31.5708570  60.9721120  56.7125590  31.2310800
  61.4348040  58.0690360  31.7186900  57.3802500  51.5793320  17.6183630
  56.7556680  51.5753190  18.3436940  57.2932620  50.7124280  17.2219600
  56.3019580  52.5029950  24.5967400  56.5991910  53.4092780  24.5159420
  56.8505140  52.0148730  23.9826970  54.0557900  57.0816190  20.4659050
  53.8298820  56.8653360  21.3705670  53.2750430  57.5144650  20.1205020
  61.2855660  57.0879560  19.0649700  60.6864550  57.8115360  18.8813320
  61.8335270  57.0256340  18.2826150  56.4957110  57.9801770  31.1319320
  56.4000710  57.0396500  30.9819720  57.3389090  58.2016840  30.7367390
  59.8920530  55.7243100  21.0952980  60.2850100  56.0415300  20.2821670
  60.2537380  54.8454980  21.2097500  51.6267650  54.3915440  29.2853100
  51.2331040  55.2390650  29.4925880  50.9386050  53.7541810  29.4761740
  58.2012700  54.4750410  32.3549840  57.5111020  54.2822610  32.9895930
  58.9445000  54.7585050  32.8874140  48.9284700  52.3143900  23.3183180
  48.6397750  52.8846760  24.0308160  49.6730460  51.8348350  23.6814410
  49.1154930  56.2564020  14.5285900  49.0329600  57.1994780  14.6700890
  48.7637990  56.1138930  13.6498250  60.4775670  58.3148850  25.1903760
  59.7456790  58.8235660  25.5393860  60.0800010  57.4978830  24.8892540
  56.9153060  54.9903050  23.5956250  56.9189120  54.5493000  22.7460790
  57.8104180  55.3120380  23.7028070  52.7655440  54.8729540  22.5550460
  52.4255490  55.3504770  23.3117510  52.0032760  54.4194660  22.1951560
  56.9773210  55.9915130  16.5863010  57.0986030  55.9501610  17.5348830
  56.5921720  56.8539280  16.4309740  60.9401580  53.7682530  24.6026700
  60.9574320  54.2191180  25.4468550  60.6917160  52.8688170  24.8160140
  55.9894710  58.3016270  15.9846310  55.4211610  57.8534520  15.3582220
  56.6983710  58.6609050  15.4511460  64.3672330  51.1814710  30.4413080
  64.6918100  50.4504370  30.9671060  64.4028840  50.8628350  29.5394070
  51.0663890  62.2028290  29.8613040  50.6818680  61.5621960  30.4596000
  51.3776080  62.9064410  30.4307770  57.2161030  59.0504830  25.3421660
  57.5831160  58.5763400  26.0883000  57.0266090  59.9246400  25.6830000
  50.0801520  53.7948520  21.4715130  49.7948440  53.4304190  22.3093750
  50.0180380  53.0628980  20.8578270  55.0060400  58.0913470  27.6605870
  54.7017470  58.9705450  27.8856230  55.9606860  58.1513260  27.6963310
  53.5342190  62.2974460  18.2572720  52.7604450  61.7572080  18.0971440
  54.2636820  61.7781070  17.9190480  64.2930170  61.2939820  24.0499110
  65.0129290  61.7895110  23.6595220  64.0911990  60.6157710  23.4052980
  59.7540110  52.6877780  18.1928500  58.9404720  52.1890950  18.1173810
  59.5602060  53.5276030  17.7764850  59.6748970  61.3648880  29.9368110
  59.6086280  60.4444550  29.6825700  59.0454110  61.4624320  30.6512750
  62.4688500  57.0597430  16.4890660  63.3568120  57.3714660  16.3142000
  62.4393590  56.1869680  16.0971240  53.5779590  61.9654840  21.8951530
  54.0958260  61.1623100  21.8408420  53.1263610  61.9033980  22.7368360
  58.4649090  63.2321120  17.1678830  58.8064790  63.9763350  16.6722150
  57.6361800  63.5452240  17.5303660  51.0624130  58.9316210  28.8077230
  50.7039070  59.5970060  29.3950570  50.7678690  58.0999760  29.1789850
  54.2637250  59.3900450  31.6916780  53.9637390  59.5357630  30.7944600
  55.0348490  58.8305740  31.5990170  59.6065700  64.1869450  29.6871910
  59.6210240  63.2550410  29.4690820  58.8990800  64.2729210  30.3261680
  64.7402770  58.3709270  15.9570520  64.6566490  58.8023490  15.1066960
  65.4596960  58.8307620  16.3897340  65.8176910  60.8276790  29.0340490
  65.0925100  61.4205570  28.8369880  66.3452370  60.8200330  28.2353860
  65.7690020  65.2251530  18.6852650  65.1266180  64.5707150  18.9596370
  65.3820680  65.6306620  17.9093320  61.3476500  62.5536960  22.5324340
  61.7000320  61.9565090  21.8725710  60.4638830  62.2281190  22.7032590
  57.4339780  63.3134650  19.9394750  58.1210910  63.8603860  20.3202340
  56.6472200  63.8575380  19.9744360  49.5732180  58.9307470  15.4311830
  50.4427030  59.2132270  15.7147750  49.0822500  59.7443340  15.3160640
  56.7366990  60.3180680  19.5520110  57.1929770  61.1285930  19.7780300
  56.3855200  60.0003820  20.3838600  59.0399600  65.8287020  26.7812410
  59.6841820  66.0346400  27.4585830  59.4029040  65.0675420  26.3283260
  52.6378770  50.6618330  20.0242630  52.5093400  50.6536230  20.9727550
  51.8140790  51.0001420  19.6733640  60.3131680  63.8319370  25.4989860
  60.9553910  63.1312530  25.6122030  60.8381030  64.6117810  25.3186750
  64.1587400  64.1167990  15.2229000  63.9324980  63.3998430  15.8153640
  63.7683600  63.8680430  14.3850750  62.0869300  64.6314270  28.7025920
  62.4225540  65.2180960  29.3803840  61.1669640  64.5006980  28.9323710
  49.9403430  68.1434850  15.9973460  50.3001070  68.7424190  15.3430730
  49.7995770  68.6894740  16.7708490  49.6372700  52.4209450  29.4849330
  48.9231220  52.6206370  30.0901940  50.0567740  51.6449020  29.8564130
  63.7403650  62.0339930  16.8843160  63.4525350  62.4952620  17.6721040
  64.5355820  61.5737700  17.1527380  49.9245290  66.4089710  30.4715860
  50.0336410  65.4684450  30.3311250  49.2725850  66.6744460  29.8229590
  57.9157880  64.6805600  31.8713980  57.5954750  63.9614840  32.4159670
  57.2416240  65.3560670  31.9450040  55.9572050  65.5266050  16.8147130
  55.9482150  66.2595740  16.1991640  55.0370410  65.2797630  16.9074090
  51.5578690  60.7480940  17.5593890  50.9506640  61.4879840  17.5689190
  52.0328040  60.8380300  16.7332090  61.1311480  54.9131760  27.2350780
  61.4992300  54.0926970  27.5630350  60.2709680  54.9733650  27.6506430
  64.4973510  53.8688700  18.0438340  63.8686670  53.9734370  17.3296570
  64.0025430  54.0885480  18.8332220  58.9431650  65.5894290  15.4772320
  59.0443630  65.3858280  14.5474300  58.0433390  65.3352570  15.6820100
  56.4657540  56.1474650  19.4596220  55.7573690  56.6160990  19.9009830
  56.7502020  55.4896660  20.0941410  58.0913470  57.5671350  27.4588750
  58.5898720  58.0417170  28.1240600  58.2336420  56.6434870  27.6658780
  60.4972970  52.8725310  20.8992010  60.3740750  52.8911440  19.9501520
  61.4457530  52.9204250  21.0190410  57.5849760  68.1080610  20.1719990
  57.8391260  68.0702000  19.2499360  56.6362240  67.9813940  20.1648240
  54.6692560  54.4559730  16.8346930  55.5183090  54.8929880  16.7687120
  54.3023830  54.7679990  17.6618990  65.2980330  53.7839310  28.3017140
  64.7953930  54.5244710  28.6410950  66.1136990  54.1723310  27.9853930
  63.5902340  59.0272490  21.7478500  62.6492480  59.0422720  21.9226190
  63.9046410  58.2408450  22.1938800  53.5683980  60.7092090  15.3082460
  54.3347250  60.5973450  15.8707890  53.6458670  60.0130060  14.6559230
  52.2630740  58.1417160  15.9915350  52.3434330  57.1944670  16.1032750
  53.1550490  58.4724040  16.0976010  65.5927920  66.1981340  23.4232760
  65.7175340  67.0212510  23.8956570  66.4593480  65.9872070  23.0756910
  53.0645450  68.2912550  23.0949890  53.8007930  67.7428010  23.3658460
  53.4486370  69.1568560  22.9555880  49.9490930  64.3586120  18.9691400
  49.0230710  64.6007260  18.9596810  50.4147360  65.1860380  18.8476150
  52.0703730  67.4758620  32.2835470  52.8716460  67.7970670  32.6970870
  51.5555550  67.1154200  33.0055380  56.1747760  67.4642860  14.9175460
  56.9676370  67.7531690  14.4657250  55.6552110  67.0335030  14.2387940
  60.9068360  63.5838490  32.2310880  60.3006520  63.6070090  31.4906630
  60.6022470  62.8521530  32.7678130  62.3368730  67.3118780  30.8420290
  63.2890480  67.2276800  30.7920530  62.1896950  67.9760490  31.5154080
  65.2277930  66.6912990  16.3412200  64.9419440  66.2778130  15.5266380
  65.0297480  67.6200700  16.2212720  49.7901540  59.9632080  31.2271520
  50.2940560  59.3839360  31.7987750  49.0508960  60.2472310  31.7647890
  56.6925160  62.6846270  14.7817810  56.5875800  62.0698620  15.5079190
  56.5249380  62.1612160  13.9980820  56.8439480  61.3703070  30.7607040
  56.0785150  61.9388070  30.6761710  57.0255440  61.0779280  29.8675270
  59.9327890  61.7466300  15.3859800  59.3837990  62.1935600  16.0302540
  60.5547150  61.2415550  15.9097470  63.9862830  63.1008400  31.3182060
  64.7272300  63.4384160  30.8149520  63.2235510  63.2700460  30.7651830
  51.8224620  58.1061670  32.1221590  51.8629960  57.8075540  33.0306820
  52.6770120  58.5069280  31.9629110  55.6003010  60.7057220  17.2825100
  56.0219430  60.5397090  18.1256490  55.7253850  59.8957450  16.7880240
  53.7630430  56.6853770  30.0896080  53.2326890  56.1944720  29.4619420
  54.4318500  57.1137970  29.5554010  58.1130650  59.7294830  14.5302200
  58.6336310  59.0143850  14.1643350  58.7599050  60.3680700  14.8302710
  62.6608490  61.1523230  29.8537270  63.0749510  61.3068310  30.7027690
  61.7259490  61.2778450  30.0163050  63.1330660  58.4919390  31.8576420
  63.7151430  57.7371710  31.7696900  63.3092430  59.0226830  31.0807900
  54.2502730  53.6516140  30.1693370  54.1559600  53.0336890  29.4444240
  53.6700120  54.3782430  29.9423280  57.0164170  52.2089380  27.2020760
  56.5681470  52.2313640  26.3566310  56.3829370  51.8108400  27.7991060
  57.4223720  61.1043710  27.8233200  57.8411830  61.9476440  27.6509440
  56.5032350  61.2415750  27.5939980  59.7587620  58.8359890  29.2071040
  59.8783830  58.2401030  29.9465880  60.6181620  58.8729580  28.7872340
  62.0975520  59.3897080  27.7833550  61.5710740  59.9139700  27.1798690
  62.4406860  60.0224470  28.4143280  54.4961910  56.7790450  14.2283260
  54.2950970  55.9157810  14.5896600  54.3253960  56.6923810  13.2904860
  55.2731140  67.4096720  28.9390930  54.7352230  68.1342780  28.6199630
  55.5265100  66.9327060  28.1488270  56.5256390  55.3781240  30.4646860
  57.1156080  55.0697090  31.1524680  55.7076630  54.9060990  30.6206760
  61.3449820  54.9947050  30.6979880  60.6565340  54.3328590  30.6329870
  62.0655840  54.5485320  31.1428340  61.9750220  51.5898680  16.7570140
  62.2552510  50.7466580  17.1129560  61.2015950  51.8221790  17.2708890
  53.2944710  53.8791070  14.2161140  53.5970610  53.8858500  13.3080290
  54.0339300  53.5288930  14.7128800  58.1293350  68.6447930  29.1977580
  58.0552050  69.5483070  29.5049950  57.2272190  68.3259830  29.1699650
  56.5129640  52.8225690  15.2017340  56.1651640  52.1449680  14.6219790
  56.7142410  52.3615200  16.0160730  58.6778680  67.8106440  16.8203940
  59.5729470  68.1491410  16.8422700  58.7096310  67.0885850  16.1928220
  52.3174840  63.1833490  15.0490940  52.7549710  63.7263160  15.7048520
  52.8022570  62.3580440  15.0587280  49.5320640  65.9722520  22.5011200
  49.8623650  65.1043580  22.2689840  49.9611640  66.1781040  23.3316160
  54.1282560  64.3031530  20.1613170  53.8278100  64.1796500  21.0617080
  54.0220050  63.4440120  19.7528900  50.0210850  66.8393110  25.2392830
  49.5841840  67.0193910  26.0716980  50.5888530  67.5967730  25.0974550
  65.6573030  66.3410110  29.5270140  65.0575020  66.4002670  28.7834060
  65.7866930  65.4015090  29.6566990  66.8974480  64.0827930  14.8639850
  66.0667440  64.1504580  15.3347080  67.0746310  64.9732050  14.5606710
  66.3530940  60.8275410  17.3674050  67.1149850  61.3972060  17.4733740
  66.3685310  60.2602610  18.1382360  49.8535280  59.3513340  21.5981710
  49.1984120  59.0824980  20.9541410  50.6913230  59.2417820  21.1483690
  67.3590910  61.6825510  22.2115980  67.7299740  60.8992830  21.8051950
  67.9992840  62.3714610  22.0333280  64.3424670  63.0662090  27.6246300
  63.5284510  63.4959250  27.8872090  64.7498870  63.6780500  27.0115350
  66.4050110  61.1209780  14.5246570  66.6798950  62.0288660  14.3965790
  66.2160850  61.0572310  15.4608560  62.8025720  54.1454630  15.8200200
  63.2210600  53.9585610  14.9796860  62.4961780  53.2933680  16.1303130
  66.3015450  59.0578770  19.5176000  65.9259050  58.2906700  19.0857290
  65.5718570  59.4401470  20.0050930  50.8911210  59.7365910  26.1385050
  51.2584250  59.6493310  27.0181070  50.3222030  58.9732460  26.0391910
  65.6915070  58.2050290  29.1515520  65.4601160  57.9763040  28.2513470
  65.9519620  59.1249840  29.1060410  50.4427210  56.6475000  30.0443470
  49.5483260  56.6141760  30.3837180  50.9824760  56.8461790  30.8094720
  64.1303140  53.4306720  31.9295220  65.0073320  53.4390120  32.3129220
  64.1423980  52.6937560  31.3187570  49.0673360  56.5612270  17.5407040
  48.1637440  56.8242470  17.3658700  49.5513980  56.8323440  16.7607000
  65.5766410  57.2836260  22.8183240  66.1003890  56.7898910  22.1873410
  66.1625830  57.4186620  23.5630810  65.7556130  57.3676130  26.3402790
  64.8058840  57.3339670  26.4547780  65.9369140  58.2776240  26.1052560
  51.6100570  55.6177810  15.4501420  52.3192270  55.1961030  14.9648700
  50.8940510  55.6853040  14.8184770  51.2574730  51.6717140  14.4904070
  51.9802860  52.2126080  14.8085290  51.5299250  51.3980560  13.6145610
  65.0666380  56.5409610  18.7575650  65.5625500  56.3080480  19.5424530
  64.8682450  55.7021450  18.3413290  50.9466920  50.9223330  24.3926690
  51.5943110  50.3720710  23.9521850  51.3668760  51.1766480  25.2142500
  66.4953540  55.1770560  21.2913330  66.3852820  55.0226600  22.2295600
  67.2561130  54.6491500  21.0488740  64.8419260  51.1164690  27.7496330
  65.4791480  51.7298830  28.1155520  64.9894150  51.1525350  26.8045560
  67.3843810  53.0078480  14.5319470  68.3093120  52.8759660  14.3237760
  67.3619600  53.0871300  15.4855920  67.4582300  53.7789140  17.1576180
  66.6633800  53.7134260  17.6869090  67.6625580  54.7139780  17.1461530
  64.4000720  67.8180690  21.1514570  64.9959790  67.4965260  20.4748990
  64.6578870  67.3452510  21.9427840  50.6998920  51.0779000  27.1352010
  50.3513740  51.5342820  27.9010190  50.3686620  50.1836130  27.2174440
  52.3063290  64.2498600  31.3005200  52.2632920  63.8791510  32.1819660
  52.4374300  65.1876170  31.4407020  56.0069320  65.8058190  26.9014920
  55.7660680  66.0732750  26.0145440  56.9471960  65.9763920  26.9565780
  58.2123740  52.2690880  30.6571430  58.1512630  52.8612710  31.4066840
  59.1524120  52.1616840  30.5121690  60.8498300  51.9260940  30.2963720
  61.4638710  52.2440230  29.6344800  61.3947860  51.4409530  30.9159580
  67.2673480  67.8252570  27.7025560  66.7731760  68.2221440  26.9852690
  66.6586770  67.2001780  28.0962840  51.3719560  50.6055200  30.4102780
  51.9202550  50.4243250  29.6468890  51.4374870  49.8149310  30.9459090
  52.1451320  67.1960850  28.4202980  51.5511640  67.0645550  29.1593020
  52.1375160  66.3598990  27.9545080  61.5906340  50.4893080  26.6233010
  60.7166180  50.8228190  26.4205940  61.4817090  50.0166260  27.4484880
  62.4978320  52.6963950  28.0074730  62.1691680  51.8815710  27.6276460
  63.4460620  52.6533760  27.8840420  64.9512930  68.4675990  24.9812300
  64.4915900  69.2191800  24.6070320  64.3225390  67.7482460  24.9227100
  51.7763550  64.5619230  27.3711020  51.0497610  63.9424520  27.3036970
  51.8372700  64.9559840  26.5009100  55.3808650  66.7764230  24.1560430
  55.8973670  66.1651590  23.6308690  56.0306030  67.2793010  24.6471440
  58.1204150  67.6672720  24.9829410  58.4081960  67.4127020  24.1062420
  58.6327370  67.1150080  25.5734980  59.3381160  51.4062920  25.5625920
  58.5552950  51.8808420  25.8422680  59.0444090  50.5017750  25.4539100
  63.8902230  52.1086020  23.6075010  64.3310320  52.0531120  22.7596610
  63.6209820  53.0244030  23.6785190  65.7540800  51.7401260  21.6183830
  65.6929200  50.7962480  21.4714850  66.5332830  51.8481350  22.1637290
  50.0593550  67.8793620  20.5807780  49.8915590  67.2464300  21.2789670
  49.1928060  68.0853020  20.2301970  50.6821570  51.7110400  18.0839640
  51.4400930  51.8239280  17.5103670  50.2198740  52.5479600  18.0383070
  57.2235380  53.8249670  21.0741950  56.4109890  53.4506560  20.7337830
  57.7277020  53.0694750  21.3763140  61.7260360  50.4892120  22.3125020
  62.3289730  51.0612330  22.7873540  60.9853350  51.0531560  22.0898920
  64.8694960  50.8913680  17.5865300  65.0645590  51.7897130  17.8532730
  64.0824830  50.6600760  18.0798250  51.6656250  66.5726850  18.0257920
  51.1403870  66.9534880  17.3219880  51.5900830  67.1977620  18.7467630
  53.0546720  52.2374450  16.6241610  53.5839480  51.4504250  16.4949560
  53.6875040  52.9165640  16.8577140  55.2484560  51.9749590  19.6787000
  54.6187300  51.2736900  19.8457130  54.7089700  52.7353720  19.4620160
  58.1876510  68.5888820  32.3497610  59.1143820  68.3533090  32.3933570
  58.1726940  69.4160820  31.8683640  66.4221570  68.1314390  19.3471860
  66.5973760  67.4452130  18.7032780  65.7243140  68.6561440  18.9548530
  55.3740120  51.2533570  32.1139490  55.0924390  51.7567170  31.3500310
  55.7559820  50.4555320  31.7481620  54.2649220  68.5209230  16.9007170
  54.9968040  68.2368510  16.3531060  54.5242890  68.2822510  17.7906550
  53.4264010  64.6373960  16.9053500  52.7972890  65.1059060  17.4539330
  53.5411840  63.7923180  17.3399690  61.9755580  50.6687150  32.6919960
  61.8621030  50.9881760  33.5871480  62.7925320  51.0699660  32.3957240
  64.7554070  67.8158680  32.1738650  65.5479390  67.3207910  31.9664610
  65.0487220  68.4948820  32.7814260  60.8813730  58.6879620   3.0554700
  60.8007780  57.7734230   2.7846410  60.4678150  59.1846690   2.3494410
  59.0131770  60.4658640   4.9363970  58.2373870  59.9859080   5.2262540
  59.6644700  59.7864290   4.7620130  53.0297600  60.7778450   5.8139730
  52.1982480  60.5227160   6.2136240  53.6378580  60.8489220   6.5497650
  63.0339200  64.8718830   3.7163100  62.5720730  64.1006070   4.0450270
  63.8464750  64.8984900   4.2215550  53.0098860  64.8118540   6.0097750
  53.3126900  63.9216280   5.8307970  53.7542450  65.3688760   5.7820000
  49.4022560  58.3385990   5.4821820  49.9738670  57.5708190   5.4825460
  49.4024100  58.6374750   4.5728430  59.2602510  67.1576840   3.3367090
  58.6413950  67.6134340   2.7661530  60.1154290  67.3128300   2.9356790
  58.4540760  63.1415830   4.9434130  58.3849040  62.2005770   4.7823260
  59.2160620  63.2317240   5.5156700  50.6447430  53.7470350   7.2690750
  50.4650270  52.8496100   7.5493510  50.2427510  54.2942220   7.9437700
  59.4845930  55.9486210   5.1703060  59.8610750  55.0758090   5.0576730
  59.3865440  56.2844910   4.2793500  63.2670050  53.4436650   2.1031400
  64.0879670  52.9533220   2.1456880  63.3004130  54.0334310   2.8563240
  51.2634100  56.2430850   5.8773090  51.9444210  56.5069220   6.4960490
  50.9482150  55.4031720   6.2111100  55.4558670  57.2898210   4.9645680
  55.9636890  57.7879180   5.6050700  55.9871910  56.5133410   4.7885040
  67.5569600  55.4603400   8.6675030  66.8521770  55.8485110   8.1490140
  67.8227520  56.1553690   9.2695960  53.7394770  51.9296770   9.2309100
  53.7413210  52.4469160   8.4255000  52.9099080  51.4526950   9.2079030
  54.9897620  61.5691950   7.4082600  54.6567000  62.1960870   8.0503670
  55.1664300  62.0953830   6.6284270  63.5031530  55.3837030   4.8758940
  62.7987100  55.6721920   5.4562050  63.8643690  56.1937140   4.5158500
  53.4210100  53.6406730   7.2379550  53.7626910  54.4848780   6.9433420
  52.4825910  53.7890470   7.3544890  54.2016720  63.5372750   9.2231780
  54.8190720  64.2123830   8.9416230  53.3409840  63.9460730   9.1319280
  65.1194310  65.0012160   7.1386420  64.4357830  65.6711270   7.1303090
  65.6588600  65.1992810   6.3731280  66.5718450  54.8291820   5.2668150
  65.6243360  54.8630800   5.3983580  66.8968440  55.6430770   5.6517510
  57.1037990  51.1289000   3.5624140  57.4112970  50.5735890   2.8459640
  56.1738690  51.2633460   3.3797130  62.6553050  66.8456290   5.8531600
  62.6680210  66.4418580   4.9853860  62.1028270  67.6203580   5.7493030
  62.0538490  61.7486130   7.1814210  62.4707280  61.5346240   6.3467670
  62.7778310  62.0058920   7.7522830  66.0000590  60.1473350   7.2730450
  65.1719220  60.2166440   6.7980580  66.5951070  60.7327660   6.8046280
  62.9642600  56.9342670   8.2185320  62.5513780  57.7596380   8.4725310
  62.2318550  56.3487710   8.0261680  55.0975390  59.7202570   3.0803990
  54.6932390  59.0079820   2.5849890  55.1838510  59.3755810   3.9692030
  55.5657090  63.4070130   5.2443200  55.2685380  62.8015600   4.5650980
  56.5156910  63.4447440   5.1332560  53.8104010  56.4945780   6.8603030
  54.3618600  56.6041120   6.0856280  54.3247520  56.8683380   7.5758260
  63.6542700  66.9802000   8.9066300  63.1773260  67.7874190   8.7138910
  62.9704490  66.3280330   9.0592510  54.6575520  63.1451820  11.8951000
  53.7604050  63.3691790  12.1424400  54.6828390  63.2686760  10.9462400
  53.4846740  60.0165140  10.4708370  53.3454510  60.8887940  10.8395770
  52.6028100  59.6737950  10.3256310  55.2827090  65.9586840  12.6793520
  55.2542520  66.3629790  11.8121950  55.1192060  65.0297200  12.5165120
  67.2341910  66.7413940  13.9757690  67.7101630  67.2196830  14.6546770
  67.8549070  66.6731430  13.2503190  49.4365390  61.7862690   6.3879280
  49.5145810  61.9211460   5.4435000  50.0507070  61.0778580   6.5807400
  50.6813020  63.4862880   2.7985460  50.2741100  63.6277470   1.9439060
  51.5726030  63.2023040   2.5956670  66.6375160  63.9326790  11.1357700
  66.7638220  63.6938670  10.2174880  66.6796540  63.1011330  11.6079780
  60.4991900  67.6354790   9.7052510  61.0136570  67.5462800  10.5074940
  59.6560980  67.9814490   9.9980420  61.7422360  67.0560400   1.7683000
  62.1979310  66.2749780   2.0821620  62.0814880  67.7667220   2.3124180
  66.4899170  55.9859250  12.1007440  65.8743440  56.4938920  11.5722900
  66.1695590  55.0857580  12.0433380  49.4924910  62.8276860   8.9273740
  49.6555950  62.3582220   8.1093110  49.9577360  62.3200420   9.5922580
  54.2643680  51.9582620   3.9634310  53.8211830  52.7392160   3.6318830
  54.8228670  52.2812510   4.6705250  58.5513490  54.8251140   9.5669630
  58.0892860  55.0334160  10.3789570  58.1491600  54.0110490   9.2640300
  63.5518000  56.0460090  10.6966290  62.7011590  55.7465840  11.0175360
  63.3919790  56.2902100   9.7850110  60.6467710  57.5461840  12.7965080
  60.9721120  56.7125590  12.4567310  61.4348040  58.0690360  12.9443410
  56.3019580  52.5029950   5.8223910  56.5991910  53.4092780   5.7415930
  56.8505140  52.0148730   5.2083480  56.4957110  57.9801770  12.3575830
  56.4000710  57.0396500  12.2076230  57.3389090  58.2016840  11.9623900
  51.6267650  54.3915440  10.5109610  51.2331040  55.2390650  10.7182390
  50.9386050  53.7541810  10.7018250  58.2012700  54.4750410  13.5806350
  57.5111020  54.2822610  14.2152440  58.9445000  54.7585050  14.1130650
  48.9284700  52.3143900   4.5439690  48.6397750  52.8846760   5.2564670
  49.6730460  51.8348350   4.9070920  60.4775670  58.3148850   6.4160270
  59.7456790  58.8235660   6.7650370  60.0800010  57.4978830   6.1149050
  56.9153060  54.9903050   4.8212760  56.9189120  54.5493000   3.9717300
  57.8104180  55.3120380   4.9284580  52.7655440  54.8729540   3.7806970
  52.4255490  55.3504770   4.5374020  52.0032760  54.4194660   3.4208070
  60.9401580  53.7682530   5.8283210  60.9574320  54.2191180   6.6725060
  60.6917160  52.8688170   6.0416650  64.3672330  51.1814710  11.6669590
  64.6918100  50.4504370  12.1927570  64.4028840  50.8628350  10.7650580
  51.0663890  62.2028290  11.0869550  50.6818680  61.5621960  11.6852510
  51.3776080  62.9064410  11.6564280  57.2161030  59.0504830   6.5678170
  57.5831160  58.5763400   7.3139510  57.0266090  59.9246400   6.9086510
  50.0801520  53.7948520   2.6971640  49.7948440  53.4304190   3.5350260
  50.0180380  53.0628980   2.0834780  55.0060400  58.0913470   8.8862380
  54.7017470  58.9705450   9.1112740  55.9606860  58.1513260   8.9219820
  64.2930170  61.2939820   5.2755620  65.0129290  61.7895110   4.8851730
  64.0911990  60.6157710   4.6309490  59.6748970  61.3648880  11.1624620
  59.6086280  60.4444550  10.9082210  59.0454110  61.4624320  11.8769260
  53.5779590  61.9654840   3.1208040  54.0958260  61.1623100   3.0664930
  53.1263610  61.9033980   3.9624870  51.0624130  58.9316210  10.0333740
  50.7039070  59.5970060  10.6207080  50.7678690  58.0999760  10.4046360
  54.2637250  59.3900450  12.9173290  53.9637390  59.5357630  12.0201110
  55.0348490  58.8305740  12.8246680  59.6065700  64.1869450  10.9128420
  59.6210240  63.2550410  10.6947330  58.8990800  64.2729210  11.5518190
  65.8176910  60.8276790  10.2597000  65.0925100  61.4205570  10.0626390
  66.3452370  60.8200330   9.4610370  61.3476500  62.5536960   3.7580850
  61.7000320  61.9565090   3.0982220  60.4638830  62.2281190   3.9289100
  59.0399600  65.8287020   8.0068920  59.6841820  66.0346400   8.6842340
  59.4029040  65.0675420   7.5539770  60.3131680  63.8319370   6.7246370
  60.9553910  63.1312530   6.8378540  60.8381030  64.6117810   6.5443260
  62.0869300  64.6314270   9.9282430  62.4225540  65.2180960  10.6060350
  61.1669640  64.5006980  10.1580220  49.6372700  52.4209450  10.7105840
  48.9231220  52.6206370  11.3158450  50.0567740  51.6449020  11.0820640
  49.9245290  66.4089710  11.6972370  50.0336410  65.4684450  11.5567760
  49.2725850  66.6744460  11.0486100  57.9157880  64.6805600  13.0970490
  57.5954750  63.9614840  13.6416180  57.2416240  65.3560670  13.1706550
  61.1311480  54.9131760   8.4607290  61.4992300  54.0926970   8.7886860
  60.2709680  54.9733650   8.8762940  58.0913470  57.5671350   8.6845260
  58.5898720  58.0417170   9.3497110  58.2336420  56.6434870   8.8915290
  65.2980330  53.7839310   9.5273650  64.7953930  54.5244710   9.8667460
  66.1136990  54.1723310   9.2110440  63.5902340  59.0272490   2.9735010
  62.6492480  59.0422720   3.1482700  63.9046410  58.2408450   3.4195310
  65.5927920  66.1981340   4.6489270  65.7175340  67.0212510   5.1213080
  66.4593480  65.9872070   4.3013420  53.0645450  68.2912550   4.3206400
  53.8007930  67.7428010   4.5914970  53.4486370  69.1568560   4.1812390
  52.0703730  67.4758620  13.5091980  52.8716460  67.7970670  13.9227380
  51.5555550  67.1154200  14.2311890  60.9068360  63.5838490  13.4567390
  60.3006520  63.6070090  12.7163140  60.6022470  62.8521530  13.9934640
  62.3368730  67.3118780  12.0676800  63.2890480  67.2276800  12.0177040
  62.1896950  67.9760490  12.7410590  49.7901540  59.9632080  12.4528030
  50.2940560  59.3839360  13.0244260  49.0508960  60.2472310  12.9904400
  56.8439480  61.3703070  11.9863550  56.0785150  61.9388070  11.9018220
  57.0255440  61.0779280  11.0931780  63.9862830  63.1008400  12.5438570
  64.7272300  63.4384160  12.0406030  63.2235510  63.2700460  11.9908340
  51.8224620  58.1061670  13.3478100  51.8629960  57.8075540  14.2563330
  52.6770120  58.5069280  13.1885620  53.7630430  56.6853770  11.3152590
  53.2326890  56.1944720  10.6875930  54.4318500  57.1137970  10.7810520
  62.6608490  61.1523230  11.0793780  63.0749510  61.3068310  11.9284200
  61.7259490  61.2778450  11.2419560  63.1330660  58.4919390  13.0832930
  63.7151430  57.7371710  12.9953410  63.3092430  59.0226830  12.3064410
  54.2502730  53.6516140  11.3949880  54.1559600  53.0336890  10.6700750
  53.6700120  54.3782430  11.1679790  57.0164170  52.2089380   8.4277270
  56.5681470  52.2313640   7.5822820  56.3829370  51.8108400   9.0247570
  57.4223720  61.1043710   9.0489710  57.8411830  61.9476440   8.8765950
  56.5032350  61.2415750   8.8196490  59.7587620  58.8359890  10.4327550
  59.8783830  58.2401030  11.1722390  60.6181620  58.8729580  10.0128850
  62.0975520  59.3897080   9.0090060  61.5710740  59.9139700   8.4055200
  62.4406860  60.0224470   9.6399790  55.2731140  67.4096720  10.1647440
  54.7352230  68.1342780   9.8456140  55.5265100  66.9327060   9.3744780
  56.5256390  55.3781240  11.6903370  57.1156080  55.0697090  12.3781190
  55.7076630  54.9060990  11.8463270  61.3449820  54.9947050  11.9236390
  60.6565340  54.3328590  11.8586380  62.0655840  54.5485320  12.3684850
  58.1293350  68.6447930  10.4234090  58.0552050  69.5483070  10.7306460
  57.2272190  68.3259830  10.3956160  49.5320640  65.9722520   3.7267710
  49.8623650  65.1043580   3.4946350  49.9611640  66.1781040   4.5572670
  50.0210850  66.8393110   6.4649340  49.5841840  67.0193910   7.2973490
  50.5888530  67.5967730   6.3231060  65.6573030  66.3410110  10.7526650
  65.0575020  66.4002670  10.0090570  65.7866930  65.4015090  10.8823500
  49.8535280  59.3513340   2.8238220  49.1984120  59.0824980   2.1797920
  50.6913230  59.2417820   2.3740200  67.3590910  61.6825510   3.4372490
  67.7299740  60.8992830   3.0308460  67.9992840  62.3714610   3.2589790
  64.3424670  63.0662090   8.8502810  63.5284510  63.4959250   9.1128600
  64.7498870  63.6780500   8.2371860  50.8911210  59.7365910   7.3641560
  51.2584250  59.6493310   8.2437580  50.3222030  58.9732460   7.2648420
  65.6915070  58.2050290  10.3772030  65.4601160  57.9763040   9.4769980
  65.9519620  59.1249840  10.3316920  50.4427210  56.6475000  11.2699980
  49.5483260  56.6141760  11.6093690  50.9824760  56.8461790  12.0351230
  64.1303140  53.4306720  13.1551730  65.0073320  53.4390120  13.5385730
  64.1423980  52.6937560  12.5444080  65.5766410  57.2836260   4.0439750
  66.1003890  56.7898910   3.4129920  66.1625830  57.4186620   4.7887320
  65.7556130  57.3676130   7.5659300  64.8058840  57.3339670   7.6804290
  65.9369140  58.2776240   7.3309070  50.9466920  50.9223330   5.6183200
  51.5943110  50.3720710   5.1778360  51.3668760  51.1766480   6.4399010
  66.4953540  55.1770560   2.5169840  66.3852820  55.0226600   3.4552110
  67.2561130  54.6491500   2.2745250  64.8419260  51.1164690   8.9752840
  65.4791480  51.7298830   9.3412030  64.9894150  51.1525350   8.0302070
  64.4000720  67.8180690   2.3771080  64.9959790  67.4965260   1.7005500
  64.6578870  67.3452510   3.1684350  50.6998920  51.0779000   8.3608520
  50.3513740  51.5342820   9.1266700  50.3686620  50.1836130   8.4430950
  52.3063290  64.2498600  12.5261710  52.2632920  63.8791510  13.4076170
  52.4374300  65.1876170  12.6663530  56.0069320  65.8058190   8.1271430
  55.7660680  66.0732750   7.2401950  56.9471960  65.9763920   8.1822290
  58.2123740  52.2690880  11.8827940  58.1512630  52.8612710  12.6323350
  59.1524120  52.1616840  11.7378200  60.8498300  51.9260940  11.5220230
  61.4638710  52.2440230  10.8601310  61.3947860  51.4409530  12.1416090
  67.2673480  67.8252570   8.9282070  66.7731760  68.2221440   8.2109200
  66.6586770  67.2001780   9.3219350  51.3719560  50.6055200  11.6359290
  51.9202550  50.4243250  10.8725400  51.4374870  49.8149310  12.1715600
  52.1451320  67.1960850   9.6459490  51.5511640  67.0645550  10.3849530
  52.1375160  66.3598990   9.1801590  61.5906340  50.4893080   7.8489520
  60.7166180  50.8228190   7.6462450  61.4817090  50.0166260   8.6741390
  62.4978320  52.6963950   9.2331240  62.1691680  51.8815710   8.8532970
  63.4460620  52.6533760   9.1096930  64.9512930  68.4675990   6.2068810
  64.4915900  69.2191800   5.8326830  64.3225390  67.7482460   6.1483610
  51.7763550  64.5619230   8.5967530  51.0497610  63.9424520   8.5293480
  51.8372700  64.9559840   7.7265610  55.3808650  66.7764230   5.3816940
  55.8973670  66.1651590   4.8565200  56.0306030  67.2793010   5.8727950
  58.1204150  67.6672720   6.2085920  58.4081960  67.4127020   5.3318930
  58.6327370  67.1150080   6.7991490  59.3381160  51.4062920   6.7882430
  58.5552950  51.8808420   7.0679190  59.0444090  50.5017750   6.6795610
  63.8902230  52.1086020   4.8331520  64.3310320  52.0531120   3.9853120
  63.6209820  53.0244030   4.9041700  65.7540800  51.7401260   2.8440340
  65.6929200  50.7962480   2.6971360  66.5332830  51.8481350   3.3893800
  57.2235380  53.8249670   2.2998460  56.4109890  53.4506560   1.9594340
  57.7277020  53.0694750   2.6019650  61.7260360  50.4892120   3.5381530
  62.3289730  51.0612330   4.0130050  60.9853350  51.0531560   3.3155430
  58.1876510  68.5888820  13.5754120  59.1143820  68.3533090  13.6190080
  58.1726940  69.4160820  13.0940150  55.3740120  51.2533570  13.3396000
  55.0924390  51.7567170  12.5756820  55.7559820  50.4555320  12.9738130
  61.9755580  50.6687150  13.9176470  61.8621030  50.9881760  14.8127990
  62.7925320  51.0699660  13.6213750  64.7554070  67.8158680  13.3995160
  65.5479390  67.3207910  13.1921120  65.0487220  68.4948820  14.0070770
  60.8813730  39.9136130  96.9272150  60.8007780  38.9990740  96.6563860
  60.4678150  40.4103200  96.2211860  59.0131770  41.6915150  98.8081420
  58.2373870  41.2115590  99.0979990  59.6644700  41.0120800  98.6337580
  53.0297600  42.0034960  99.6857180  52.1982480  41.7483670 100.0853690
  53.6378580  42.0745730 100.4215100  63.0339200  46.0975340  97.5880550
  62.5720730  45.3262580  97.9167720  63.8464750  46.1241410  98.0933000
  53.0098860  46.0375050  99.8815200  53.3126900  45.1472790  99.7025420
  53.7542450  46.5945270  99.6537450  51.4389550  36.9636850  93.4699570
  50.5506250  37.3052820  93.3679450  51.7230740  36.7637170  92.5780400
  49.4022560  39.5642500  99.3539270  49.9738670  38.7964700  99.3542910
  49.4024100  39.8631260  98.4445880  59.2602510  48.3833350  97.2084540
  58.6413950  48.8390850  96.6378980  60.1154290  48.5384810  96.8074240
  58.4540760  44.3672340  98.8151580  58.3849040  43.4262280  98.6540710
  59.2160620  44.4573750  99.3874150  59.4845930  37.1742720  99.0420510
  59.8610750  36.3014600  98.9294180  59.3865440  37.5101420  98.1510950
  53.6150940  35.5468350  94.5037950  53.7217690  36.4472080  94.8106710
  52.7043300  35.4986320  94.2132600  63.2670050  34.6693160  95.9748850
  64.0879670  34.1789730  96.0174330  63.3004130  35.2590820  96.7280690
  51.2634100  37.4687360  99.7490540  51.9444210  37.7325730 100.3677940
  50.9482150  36.6288230 100.0828550  55.4558670  38.5154720  98.8363130
  55.9636890  39.0135690  99.4768150  55.9871910  37.7389920  98.6602490
  60.1265860  43.2672590  94.6016450  59.5083130  43.7322040  94.0379170
  60.6389110  43.9600070  95.0185960  63.5031530  36.6093540  98.7476390
  62.7987100  36.8978430  99.3279500  63.8643690  37.4193650  98.3875950
  53.4210100  34.8663240 101.1097000  53.7626910  35.7105290 100.8150870
  52.4825910  35.0146980 101.2262340  49.4949060  43.9529120  91.9756080
  49.1177040  44.4416220  91.2440980  49.7522130  44.6254400  92.6062610
  65.1194310  46.2268670 101.0103870  64.4357830  46.8967780 101.0020540
  65.6588600  46.4249320 100.2448730  66.5718450  36.0548330  99.1385600
  65.6243360  36.0887310  99.2701030  66.8968440  36.8687280  99.5234960
  57.1037990  32.3545510  97.4341590  57.4112970  31.7992400  96.7177090
  56.1738690  32.4889970  97.2514580  62.6553050  48.0712800  99.7249050
  62.6680210  47.6675090  98.8571310  62.1028270  48.8460090  99.6210480
  63.9498470  44.7929020  94.8139220  63.8394800  43.8503350  94.9388640
  63.9466720  45.1544660  95.7001980  62.0538490  42.9742640 101.0531660
  62.4707280  42.7602750 100.2185120  62.7778310  43.2315430 101.6240280
  59.4918750  40.4194340  94.1701710  58.5648030  40.3531720  94.3990180
  59.6443570  41.3574470  94.0556950  59.4787830  36.6911340  91.1668870
  58.5391500  36.8525300  91.2521330  59.7971090  37.4097020  90.6204860
  66.0000590  41.3729860 101.1447900  65.1719220  41.4422950 100.6698030
  66.5951070  41.9584170 100.6763730  63.5216040  41.9814640  94.6736960
  62.9028460  41.6434190  94.0263260  63.5040490  41.3374400  95.3816150
  55.0975390  40.9459080  96.9521440  54.6932390  40.2336330  96.4567340
  55.1838510  40.6012320  97.8409480  55.5657090  44.6326640  99.1160650
  55.2685380  44.0272110  98.4368430  56.5156910  44.6703950  99.0050010
  53.8104010  37.7202290 100.7320480  54.3618600  37.8297630  99.9573730
  54.3247520  38.0939890 101.4475710  61.6980740  41.2201450  91.6809710
  62.1374020  40.3823880  91.5347530  62.4109160  41.8530850  91.7673850
  59.8076120  46.1597520  95.6490950  60.2472030  46.9021850  95.2346340
  59.7463010  46.4024090  96.5729910  65.2797880  32.4744260  89.9950750
  64.9670540  32.5671090  90.8949820  66.0410350  33.0525290  89.9448180
  51.7980020  39.8404060  94.4528090  51.6777620  40.5666150  93.8409360
  51.4880910  39.0706970  93.9756000  49.4365390  43.0119200 100.2596730
  49.5145810  43.1467970  99.3152450  50.0507070  42.3035090 100.4524850
  50.6813020  44.7119390  96.6702910  50.2741100  44.8533980  95.8156510
  51.5726030  44.4279550  96.4674120  62.4746300  49.1466640  93.0053960
  62.3147440  48.8569580  93.9035790  62.3093010  48.3706770  92.4699190
  54.9534680  48.9265170  94.7825580  54.7777160  48.0100710  94.5693380
  54.0990420  49.2852460  95.0223380  62.1772430  46.6554200  91.5651960
  61.4837590  46.6531490  90.9054240  62.9195290  46.2313520  91.1346130
  61.7422360  48.2816910  95.6400450  62.1979310  47.5006290  95.9539070
  62.0814880  48.9923730  96.1841630  54.2643680  33.1839130  97.8351760
  53.8211830  33.9648670  97.5036280  54.8228670  33.5069020  98.5422700
  57.3802500  32.8049830  92.7157590  56.7556680  32.8009700  93.4410900
  57.2932620  31.9380790  92.3193560  56.3019580  33.7286460  99.6941360
  56.5991910  34.6349290  99.6133380  56.8505140  33.2405240  99.0800930
  54.0557900  38.3072700  95.5633010  53.8298820  38.0909870  96.4679630
  53.2750430  38.7401160  95.2178980  61.2855660  38.3136070  94.1623660
  60.6864550  39.0371870  93.9787280  61.8335270  38.2512850  93.3800110
  59.8920530  36.9499610  96.1926940  60.2850100  37.2671810  95.3795630
  60.2537380  36.0711490  96.3071460  48.9284700  33.5400410  98.4157140
  48.6397750  34.1103270  99.1282120  49.6730460  33.0604860  98.7788370
  49.1154930  37.4820530  89.6259860  49.0329600  38.4251290  89.7674850
  48.7637990  37.3395440  88.7472210  60.4775670  39.5405360 100.2877720
  59.7456790  40.0492170 100.6367820  60.0800010  38.7235340  99.9866500
  56.9153060  36.2159560  98.6930210  56.9189120  35.7749510  97.8434750
  57.8104180  36.5376890  98.8002030  52.7655440  36.0986050  97.6524420
  52.4255490  36.5761280  98.4091470  52.0032760  35.6451170  97.2925520
  56.9773210  37.2171640  91.6836970  57.0986030  37.1758120  92.6322790
  56.5921720  38.0795790  91.5283700  60.9401580  34.9939040  99.7000660
  60.9574320  35.4447690 100.5442510  60.6917160  34.0944680  99.9134100
  55.9894710  39.5272780  91.0820270  55.4211610  39.0791030  90.4556180
  56.6983710  39.8865560  90.5485420  57.2161030  40.2761340 100.4395620
  57.5831160  39.8019910 101.1856960  57.0266090  41.1502910 100.7803960
  50.0801520  35.0205030  96.5689090  49.7948440  34.6560700  97.4067710
  50.0180380  34.2885490  95.9552230  53.5342190  43.5230970  93.3546680
  52.7604450  42.9828590  93.1945400  54.2636820  43.0037580  93.0164440
  64.2930170  42.5196330  99.1473070  65.0129290  43.0151620  98.7569180
  64.0911990  41.8414220  98.5026940  59.7540110  33.9134290  93.2902460
  58.9404720  33.4147460  93.2147770  59.5602060  34.7532540  92.8738810
  62.4688500  38.2853940  91.5864620  63.3568120  38.5971170  91.4115960
  62.4393590  37.4126190  91.1945200  53.5779590  43.1911350  96.9925490
  54.0958260  42.3879610  96.9382380  53.1263610  43.1290490  97.8342320
  58.4649090  44.4577630  92.2652790  58.8064790  45.2019860  91.7696110
  57.6361800  44.7708750  92.6277620  64.7402770  39.5965780  91.0544480
  64.6566490  40.0280000  90.2040920  65.4596960  40.0564130  91.4871300
  65.7690020  46.4508040  93.7826610  65.1266180  45.7963660  94.0570330
  65.3820680  46.8563130  93.0067280  61.3476500  43.7793470  97.6298300
  61.7000320  43.1821600  96.9699670  60.4638830  43.4537700  97.8006550
  57.4339780  44.5391160  95.0368710  58.1210910  45.0860370  95.4176300
  56.6472200  45.0831890  95.0718320  49.5732180  40.1563980  90.5285790
  50.4427030  40.4388780  90.8121710  49.0822500  40.9699850  90.4134600
  56.7366990  41.5437190  94.6494070  57.1929770  42.3542440  94.8754260
  56.3855200  41.2260330  95.4812560  52.6378770  31.8874840  95.1216590
  52.5093400  31.8792740  96.0701510  51.8140790  32.2257930  94.7707600
  60.3131680  45.0575880 100.5963820  60.9553910  44.3569040 100.7095990
  60.8381030  45.8374320 100.4160710  64.1587400  45.3424500  90.3202960
  63.9324980  44.6254940  90.9127600  63.7683600  45.0936940  89.4824710
  49.9403430  49.3691360  91.0947420  50.3001070  49.9680700  90.4404690
  49.7995770  49.9151250  91.8682450  63.7403650  43.2596440  91.9817120
  63.4525350  43.7209130  92.7695000  64.5355820  42.7994210  92.2501340
  55.9572050  46.7522560  91.9121090  55.9482150  47.4852250  91.2965600
  55.0370410  46.5054140  92.0048050  51.5578690  41.9737450  92.6567850
  50.9506640  42.7136350  92.6663150  52.0328040  42.0636810  91.8306050
  64.4973510  35.0945210  93.1412300  63.8686670  35.1990880  92.4270530
  64.0025430  35.3141990  93.9306180  58.9431650  46.8150800  90.5746280
  59.0443630  46.6114790  89.6448260  58.0433390  46.5609080  90.7794060
  56.4657540  37.3731160  94.5570180  55.7573690  37.8417500  94.9983790
  56.7502020  36.7153170  95.1915370  60.4972970  34.0981820  95.9965970
  60.3740750  34.1167950  95.0475480  61.4457530  34.1460760  96.1164370
  57.5849760  49.3337120  95.2693950  57.8391260  49.2958510  94.3473320
  56.6362240  49.2070450  95.2622200  54.6692560  35.6816240  91.9320890
  55.5183090  36.1186390  91.8661080  54.3023830  35.9936500  92.7592950
  63.5902340  40.2529000  96.8452460  62.6492480  40.2679230  97.0200150
  63.9046410  39.4664960  97.2912760  53.5683980  41.9348600  90.4056420
  54.3347250  41.8229960  90.9681850  53.6458670  41.2386570  89.7533190
  52.2630740  39.3673670  91.0889310  52.3434330  38.4201180  91.2006710
  53.1550490  39.6980550  91.1949970  65.5927920  47.4237850  98.5206720
  65.7175340  48.2469020  98.9930530  66.4593480  47.2128580  98.1730870
  53.0645450  49.5169060  98.1923850  53.8007930  48.9684520  98.4632420
  53.4486370  50.3825070  98.0529840  49.9490930  45.5842630  94.0665360
  49.0230710  45.8263770  94.0570770  50.4147360  46.4116890  93.9450110
  56.1747760  48.6899370  90.0149420  56.9676370  48.9788200  89.5631210
  55.6552110  48.2591540  89.3361900  65.2277930  47.9169500  91.4386160
  64.9419440  47.5034640  90.6240340  65.0297480  48.8457210  91.3186680
  56.6925160  43.9102780  89.8791770  56.5875800  43.2955130  90.6053150
  56.5249380  43.3868670  89.0954780  59.9327890  42.9722810  90.4833760
  59.3837990  43.4192110  91.1276500  60.5547150  42.4672060  91.0071430
  55.6003010  41.9313730  92.3799060  56.0219430  41.7653600  93.2230450
  55.7253850  41.1213960  91.8854200  58.1130650  40.9551340  89.6276160
  58.6336310  40.2400360  89.2617310  58.7599050  41.5937210  89.9276670
  54.4961910  38.0046960  89.3257220  54.2950970  37.1414320  89.6870560
  54.3253960  37.9180320  88.3878820  61.9750220  32.8155190  91.8544100
  62.2552510  31.9723090  92.2103520  61.2015950  33.0478300  92.3682850
  56.5129640  34.0482200  90.2991300  56.1651640  33.3706190  89.7193750
  56.7142410  33.5871710  91.1134690  58.6778680  49.0362950  91.9177900
  59.5729470  49.3747920  91.9396660  58.7096310  48.3142360  91.2902180
  52.3174840  44.4090000  90.1464900  52.7549710  44.9519670  90.8022480
  52.8022570  43.5836950  90.1561240  49.5320640  47.1979030  97.5985160
  49.8623650  46.3300090  97.3663800  49.9611640  47.4037550  98.4290120
  54.1282560  45.5288040  95.2587130  53.8278100  45.4053010  96.1591040
  54.0220050  44.6696630  94.8502860  50.0210850  48.0649620 100.3366790
  49.5841840  48.2450420 101.1690940  50.5888530  48.8224240 100.1948510
  66.8974480  45.3084440  89.9613810  66.0667440  45.3761090  90.4321040
  67.0746310  46.1988560  89.6580670  66.3530940  42.0531920  92.4648010
  67.1149850  42.6228570  92.5707700  66.3685310  41.4859120  93.2356320
  49.8535280  40.5769850  96.6955670  49.1984120  40.3081490  96.0515370
  50.6913230  40.4674330  96.2457650  67.3590910  42.9082020  97.3089940
  67.7299740  42.1249340  96.9025910  67.9992840  43.5971120  97.1307240
  66.4050110  42.3466290  89.6220530  66.6798950  43.2545170  89.4939750
  66.2160850  42.2828820  90.5582520  62.8025720  35.3711140  90.9174160
  63.2210600  35.1842120  90.0770820  62.4961780  34.5190190  91.2277090
  66.3015450  40.2835280  94.6149960  65.9259050  39.5163210  94.1831250
  65.5718570  40.6657980  95.1024890  49.0673360  37.7868780  92.6381000
  48.1637440  38.0498980  92.4632660  49.5513980  38.0579950  91.8580960
  65.5766410  38.5092770  97.9157200  66.1003890  38.0155420  97.2847370
  66.1625830  38.6443130  98.6604770  65.7556130  38.5932640 101.4376750
  64.8058840  38.5596180 101.5521740  65.9369140  39.5032750 101.2026520
  51.6100570  36.8434320  90.5475380  52.3192270  36.4217540  90.0622660
  50.8940510  36.9109550  89.9158730  65.0666380  37.7666120  93.8549610
  65.5625500  37.5336990  94.6398490  64.8682450  36.9277960  93.4387250
  50.9466920  32.1479840  99.4900650  51.5943110  31.5977220  99.0495810
  51.3668760  32.4022990 100.3116460  66.4953540  36.4027070  96.3887290
  66.3852820  36.2483110  97.3269560  67.2561130  35.8748010  96.1462700
  67.3843810  34.2334990  89.6293430  68.3093120  34.1016170  89.4211720
  67.3619600  34.3127810  90.5829880  67.4582300  35.0045650  92.2550140
  66.6633800  34.9390770  92.7843050  67.6625580  35.9396290  92.2435490
  64.4000720  49.0437200  96.2488530  64.9959790  48.7221770  95.5722950
  64.6578870  48.5709020  97.0401800  64.9512930  49.6932500 100.0786260
  64.4915900  50.4448310  99.7044280  64.3225390  48.9738970 100.0201060
  55.3808650  48.0020740  99.2534390  55.8973670  47.3908100  98.7282650
  56.0306030  48.5049520  99.7445400  58.1204150  48.8929230 100.0803370
  58.4081960  48.6383530  99.2036380  58.6327370  48.3406590 100.6708940
  59.3381160  32.6319430 100.6599880  58.5552950  33.1064930 100.9396640
  59.0444090  31.7274260 100.5513060  63.8902230  33.3342530  98.7048970
  64.3310320  33.2787630  97.8570570  63.6209820  34.2500540  98.7759150
  65.7540800  32.9657770  96.7157790  65.6929200  32.0218990  96.5688810
  66.5332830  33.0737860  97.2611250  50.0593550  49.1050130  95.6781740
  49.8915590  48.4720810  96.3763630  49.1928060  49.3109530  95.3275930
  50.6821570  32.9366910  93.1813600  51.4400930  33.0495790  92.6077630
  50.2198740  33.7736110  93.1357030  57.2235380  35.0506180  96.1715910
  56.4109890  34.6763070  95.8311790  57.7277020  34.2951260  96.4737100
  61.7260360  31.7148630  97.4098980  62.3289730  32.2868840  97.8847500
  60.9853350  32.2788070  97.1872880  64.8694960  32.1170190  92.6839260
  65.0645590  33.0153640  92.9506690  64.0824830  31.8857270  93.1772210
  51.6656250  47.7983360  93.1231880  51.1403870  48.1791390  92.4193840
  51.5900830  48.4234130  93.8441590  53.0546720  33.4630960  91.7215570
  53.5839480  32.6760760  91.5923520  53.6875040  34.1422150  91.9551100
  55.2484560  33.2006100  94.7760960  54.6187300  32.4993410  94.9431090
  54.7089700  33.9610230  94.5594120  66.4221570  49.3570900  94.4445820
  66.5973760  48.6708640  93.8006740  65.7243140  49.8817950  94.0522490
  54.2649220  49.7465740  91.9981130  54.9968040  49.4625020  91.4505020
  54.5242890  49.5079020  92.8880510  53.4264010  45.8630470  92.0027460
  52.7972890  46.3315570  92.5513290  53.5411840  45.0179690  92.4373650
  63.0339200  46.0975340  78.8137060  62.5720730  45.3262580  79.1424230
  63.8464750  46.1241410  79.3189510  59.2602510  48.3833350  78.4341050
  58.6413950  48.8390850  77.8635490  60.1154290  48.5384810  78.0330750
  63.2670050  34.6693160  77.2005360  64.0879670  34.1789730  77.2430840
  63.3004130  35.2590820  77.9537200  67.5569600  36.6859910  83.7648990
  66.8521770  37.0741620  83.2464100  67.8227520  37.3810200  84.3669920
  60.1265860  43.2672590  75.8272960  59.5083130  43.7322040  75.2635680
  60.6389110  43.9600070  76.2442470  63.5031530  36.6093540  79.9732900
  62.7987100  36.8978430  80.5536010  63.8643690  37.4193650  79.6132460
  54.2016720  44.7629260  84.3205740  54.8190720  45.4380340  84.0390190
  53.3409840  45.1717240  84.2293240  49.4949060  43.9529120  73.2012590
  49.1177040  44.4416220  72.4697490  49.7522130  44.6254400  73.8319120
  65.1194310  46.2268670  82.2360380  64.4357830  46.8967780  82.2277050
  65.6588600  46.4249320  81.4705240  66.5718450  36.0548330  80.3642110
  65.6243360  36.0887310  80.4957540  66.8968440  36.8687280  80.7491470
  62.6553050  48.0712800  80.9505560  62.6680210  47.6675090  80.0827820
  62.1028270  48.8460090  80.8466990  63.9498470  44.7929020  76.0395730
  63.8394800  43.8503350  76.1645150  63.9466720  45.1544660  76.9258490
  66.0000590  41.3729860  82.3704410  65.1719220  41.4422950  81.8954540
  66.5951070  41.9584170  81.9020240  63.5216040  41.9814640  75.8993470
  62.9028460  41.6434190  75.2519770  63.5040490  41.3374400  76.6072660
  62.9642600  38.1599180  83.3159280  62.5513780  38.9852890  83.5699270
  62.2318550  37.5744220  83.1235640  63.6542700  48.2058510  84.0040260
  63.1773260  49.0130700  83.8112870  62.9704490  47.5536840  84.1566470
  54.6575520  44.3708330  86.9924960  53.7604050  44.5948300  87.2398360
  54.6828390  44.4943270  86.0436360  59.8076120  46.1597520  76.8747460
  60.2472030  46.9021850  76.4602850  59.7463010  46.4024090  77.7986420
  55.2827090  47.1843350  87.7767480  55.2542520  47.5886300  86.9095910
  55.1192060  46.2553710  87.6139080  65.2797880  32.4744260  71.2207260
  64.9670540  32.5671090  72.1206330  66.0410350  33.0525290  71.1704690
  67.2341910  47.9670450  89.0731650  67.7101630  48.4453340  89.7520730
  67.8549070  47.8987940  88.3477150  66.6375160  45.1583300  86.2331660
  66.7638220  44.9195180  85.3148840  66.6796540  44.3267840  86.7053740
  60.4991900  48.8611300  84.8026470  61.0136570  48.7719310  85.6048900
  59.6560980  49.2071000  85.0954380  62.4746300  49.1466640  74.2310470
  62.3147440  48.8569580  75.1292300  62.3093010  48.3706770  73.6955700
  54.9534680  48.9265170  76.0082090  54.7777160  48.0100710  75.7949890
  54.0990420  49.2852460  76.2479890  62.1772430  46.6554200  72.7908470
  61.4837590  46.6531490  72.1310750  62.9195290  46.2313520  72.3602640
  61.7422360  48.2816910  76.8656960  62.1979310  47.5006290  77.1795580
  62.0814880  48.9923730  77.4098140  66.4899170  37.2115760  87.1981400
  65.8743440  37.7195430  86.6696860  66.1695590  36.3114090  87.1407340
  49.4924910  44.0533370  84.0247700  49.6555950  43.5838730  83.2067070
  49.9577360  43.5456930  84.6896540  58.5513490  36.0507650  84.6643590
  58.0892860  36.2590670  85.4763530  58.1491600  35.2367000  84.3614260
  63.5518000  37.2716600  85.7940250  62.7011590  36.9722350  86.1149320
  63.3919790  37.5158610  84.8824070  60.6467710  38.7718350  87.8939040
  60.9721120  37.9382100  87.5541270  61.4348040  39.2946870  88.0417370
  56.4957110  39.2058280  87.4549790  56.4000710  38.2653010  87.3050190
  57.3389090  39.4273350  87.0597860  58.2012700  35.7006920  88.6780310
  57.5111020  35.5079120  89.3126400  58.9445000  35.9841560  89.2104610
  60.9401580  34.9939040  80.9257170  60.9574320  35.4447690  81.7699020
  60.6917160  34.0944680  81.1390610  64.3672330  32.4071220  86.7643550
  64.6918100  31.6760880  87.2901530  64.4028840  32.0884860  85.8624540
  51.0663890  43.4284800  86.1843510  50.6818680  42.7878470  86.7826470
  51.3776080  44.1320920  86.7538240  64.2930170  42.5196330  80.3729580
  65.0129290  43.0151620  79.9825690  64.0911990  41.8414220  79.7283450
  54.2637250  40.6156960  88.0147250  53.9637390  40.7614140  87.1175070
  55.0348490  40.0562250  87.9220640  59.6065700  45.4125960  86.0102380
  59.6210240  44.4806920  85.7921290  58.8990800  45.4985720  86.6492150
  64.7402770  39.5965780  72.2800990  64.6566490  40.0280000  71.4297430
  65.4596960  40.0564130  72.7127810  65.8176910  42.0533300  85.3570960
  65.0925100  42.6462080  85.1600350  66.3452370  42.0456840  84.5584330
  65.7690020  46.4508040  75.0083120  65.1266180  45.7963660  75.2826840
  65.3820680  46.8563130  74.2323790  59.0399600  47.0543530  83.1042880
  59.6841820  47.2602910  83.7816300  59.4029040  46.2931930  82.6513730
  64.1587400  45.3424500  71.5459470  63.9324980  44.6254940  72.1384110
  63.7683600  45.0936940  70.7081220  62.0869300  45.8570780  85.0256390
  62.4225540  46.4437470  85.7034310  61.1669640  45.7263490  85.2554180
  49.9403430  49.3691360  72.3203930  50.3001070  49.9680700  71.6661200
  49.7995770  49.9151250  73.0938960  49.9245290  47.6346220  86.7946330
  50.0336410  46.6940960  86.6541720  49.2725850  47.9000970  86.1460060
  57.9157880  45.9062110  88.1944450  57.5954750  45.1871350  88.7390140
  57.2416240  46.5817180  88.2680510  61.1311480  36.1388270  83.5581250
  61.4992300  35.3183480  83.8860820  60.2709680  36.1990160  83.9736900
  60.4972970  34.0981820  77.2222480  60.3740750  34.1167950  76.2731990
  61.4457530  34.1460760  77.3420880  57.5849760  49.3337120  76.4950460
  57.8391260  49.2958510  75.5729830  56.6362240  49.2070450  76.4878710
  65.2980330  35.0095820  84.6247610  64.7953930  35.7501220  84.9641420
  66.1136990  35.3979820  84.3084400  63.5902340  40.2529000  78.0708970
  62.6492480  40.2679230  78.2456660  63.9046410  39.4664960  78.5169270
  65.5927920  47.4237850  79.7463230  65.7175340  48.2469020  80.2187040
  66.4593480  47.2128580  79.3987380  53.0645450  49.5169060  79.4180360
  53.8007930  48.9684520  79.6888930  53.4486370  50.3825070  79.2786350
  49.9490930  45.5842630  75.2921870  49.0230710  45.8263770  75.2827280
  50.4147360  46.4116890  75.1706620  52.0703730  48.7015130  88.6065940
  52.8716460  49.0227180  89.0201340  51.5555550  48.3410710  89.3285850
  60.9068360  44.8095000  88.5541350  60.3006520  44.8326600  87.8137100
  60.6022470  44.0778040  89.0908600  62.3368730  48.5375290  87.1650760
  63.2890480  48.4533310  87.1151000  62.1896950  49.2017000  87.8384550
  65.2277930  47.9169500  72.6642670  64.9419440  47.5034640  71.8496850
  65.0297480  48.8457210  72.5443190  49.7901540  41.1888590  87.5501990
  50.2940560  40.6095870  88.1218220  49.0508960  41.4728820  88.0878360
  56.8439480  42.5959580  87.0837510  56.0785150  43.1644580  86.9992180
  57.0255440  42.3035790  86.1905740  63.9862830  44.3264910  87.6412530
  64.7272300  44.6640670  87.1379990  63.2235510  44.4956970  87.0882300
  51.8224620  39.3318180  88.4452060  51.8629960  39.0332050  89.3537290
  52.6770120  39.7325790  88.2859580  62.6608490  42.3779740  86.1767740
  63.0749510  42.5324820  87.0258160  61.7259490  42.5034960  86.3393520
  63.1330660  39.7175900  88.1806890  63.7151430  38.9628220  88.0927370
  63.3092430  40.2483340  87.4038370  55.2731140  48.6353230  85.2621400
  54.7352230  49.3599290  84.9430100  55.5265100  48.1583570  84.4718740
  56.5256390  36.6037750  86.7877330  57.1156080  36.2953600  87.4755150
  55.7076630  36.1317500  86.9437230  61.3449820  36.2203560  87.0210350
  60.6565340  35.5585100  86.9560340  62.0655840  35.7741830  87.4658810
  58.1293350  49.8704440  85.5208050  58.0552050  50.7739580  85.8280420
  57.2272190  49.5516340  85.4930120  54.1282560  45.5288040  76.4843640
  53.8278100  45.4053010  77.3847550  54.0220050  44.6696630  76.0759370
  50.0210850  48.0649620  81.5623300  49.5841840  48.2450420  82.3947450
  50.5888530  48.8224240  81.4205020  65.6573030  47.5666620  85.8500610
  65.0575020  47.6259180  85.1064530  65.7866930  46.6271600  85.9797460
  66.8974480  45.3084440  71.1870320  66.0667440  45.3761090  71.6577550
  67.0746310  46.1988560  70.8837180  66.3530940  42.0531920  73.6904520
  67.1149850  42.6228570  73.7964210  66.3685310  41.4859120  74.4612830
  67.3590910  42.9082020  78.5346450  67.7299740  42.1249340  78.1282420
  67.9992840  43.5971120  78.3563750  64.3424670  44.2918600  83.9476770
  63.5284510  44.7215760  84.2102560  64.7498870  44.9037010  83.3345820
  66.4050110  42.3466290  70.8477040  66.6798950  43.2545170  70.7196260
  66.2160850  42.2828820  71.7839030  66.3015450  40.2835280  75.8406470
  65.9259050  39.5163210  75.4087760  65.5718570  40.6657980  76.3281400
  65.6915070  39.4306800  85.4745990  65.4601160  39.2019550  84.5743940
  65.9519620  40.3506350  85.4290880  64.1303140  34.6563230  88.2525690
  65.0073320  34.6646630  88.6359690  64.1423980  33.9194070  87.6418040
  65.5766410  38.5092770  79.1413710  66.1003890  38.0155420  78.5103880
  66.1625830  38.6443130  79.8861280  65.7556130  38.5932640  82.6633260
  64.8058840  38.5596180  82.7778250  65.9369140  39.5032750  82.4283030
  65.0666380  37.7666120  75.0806120  65.5625500  37.5336990  75.8655000
  64.8682450  36.9277960  74.6643760  66.4953540  36.4027070  77.6143800
  66.3852820  36.2483110  78.5526070  67.2561130  35.8748010  77.3719210
  64.8419260  32.3421200  84.0726800  65.4791480  32.9555340  84.4385990
  64.9894150  32.3781860  83.1276030  67.3843810  34.2334990  70.8549940
  68.3093120  34.1016170  70.6468230  67.3619600  34.3127810  71.8086390
  67.4582300  35.0045650  73.4806650  66.6633800  34.9390770  74.0099560
  67.6625580  35.9396290  73.4692000  64.4000720  49.0437200  77.4745040
  64.9959790  48.7221770  76.7979460  64.6578870  48.5709020  78.2658310
  52.3063290  45.4755110  87.6235670  52.2632920  45.1048020  88.5050130
  52.4374300  46.4132680  87.7637490  56.0069320  47.0314700  83.2245390
  55.7660680  47.2989260  82.3375910  56.9471960  47.2020430  83.2796250
  58.2123740  33.4947390  86.9801900  58.1512630  34.0869220  87.7297310
  59.1524120  33.3873350  86.8352160  60.8498300  33.1517450  86.6194190
  61.4638710  33.4696740  85.9575270  61.3947860  32.6666040  87.2390050
  67.2673480  49.0509080  84.0256030  66.7731760  49.4477950  83.3083160
  66.6586770  48.4258290  84.4193310  52.1451320  48.4217360  84.7433450
  51.5511640  48.2902060  85.4823490  52.1375160  47.5855500  84.2775550
  61.5906340  31.7149590  82.9463480  60.7166180  32.0484700  82.7436410
  61.4817090  31.2422770  83.7715350  62.4978320  33.9220460  84.3305200
  62.1691680  33.1072220  83.9506930  63.4460620  33.8790270  84.2070890
  64.9512930  49.6932500  81.3042770  64.4915900  50.4448310  80.9300790
  64.3225390  48.9738970  81.2457570  55.3808650  48.0020740  80.4790900
  55.8973670  47.3908100  79.9539160  56.0306030  48.5049520  80.9701910
  58.1204150  48.8929230  81.3059880  58.4081960  48.6383530  80.4292890
  58.6327370  48.3406590  81.8965450  59.3381160  32.6319430  81.8856390
  58.5552950  33.1064930  82.1653150  59.0444090  31.7274260  81.7769570
  63.8902230  33.3342530  79.9305480  64.3310320  33.2787630  79.0827080
  63.6209820  34.2500540  80.0015660  65.7540800  32.9657770  77.9414300
  65.6929200  32.0218990  77.7945320  66.5332830  33.0737860  78.4867760
  50.0593550  49.1050130  76.9038250  49.8915590  48.4720810  77.6020140
  49.1928060  49.3109530  76.5532440  61.7260360  31.7148630  78.6355490
  62.3289730  32.2868840  79.1104010  60.9853350  32.2788070  78.4129390
  64.8694960  32.1170190  73.9095770  65.0645590  33.0153640  74.1763200
  64.0824830  31.8857270  74.4028720  51.6656250  47.7983360  74.3488390
  51.1403870  48.1791390  73.6450350  51.5900830  48.4234130  75.0698100
  58.1876510  49.8145330  88.6728080  59.1143820  49.5789600  88.7164040
  58.1726940  50.6417330  88.1914110  66.4221570  49.3570900  75.6702330
  66.5973760  48.6708640  75.0263250  65.7243140  49.8817950  75.2779000
  53.4264010  45.8630470  73.2283970  52.7972890  46.3315570  73.7769800
  53.5411840  45.0179690  73.6630160  61.9755580  31.8943660  89.0150430
  61.8621030  32.2138270  89.9101950  62.7925320  32.2956170  88.7187710
  64.7554070  49.0415190  88.4969120  65.5479390  48.5464420  88.2895080
  65.0487220  49.7205330  89.1044730  63.2670050  34.6693160  58.4261870
  64.0879670  34.1789730  58.4687350  63.3004130  35.2590820  59.1793710
  67.5569600  36.6859910  64.9905500  66.8521770  37.0741620  64.4720610
  67.8227520  37.3810200  65.5926430  66.5718450  36.0548330  61.5898620
  65.6243360  36.0887310  61.7214050  66.8968440  36.8687280  61.9747980
  63.9498470  44.7929020  57.2652240  63.8394800  43.8503350  57.3901660
  63.9466720  45.1544660  58.1515000  66.0000590  41.3729860  63.5960920
  65.1719220  41.4422950  63.1211050  66.5951070  41.9584170  63.1276750
  63.5216040  41.9814640  57.1249980  62.9028460  41.6434190  56.4776280
  63.5040490  41.3374400  57.8329170  62.9642600  38.1599180  64.5415790
  62.5513780  38.9852890  64.7955780  62.2318550  37.5744220  64.3492150
  61.6980740  41.2201450  54.1322730  62.1374020  40.3823880  53.9860550
  62.4109160  41.8530850  54.2186870  65.2797880  32.4744260  52.4463770
  64.9670540  32.5671090  53.3462840  66.0410350  33.0525290  52.3961200
  67.2341910  47.9670450  70.2988160  67.7101630  48.4453340  70.9777240
  67.8549070  47.8987940  69.5733660  66.6375160  45.1583300  67.4588170
  66.7638220  44.9195180  66.5405350  66.6796540  44.3267840  67.9310250
  62.4746300  49.1466640  55.4566980  62.3147440  48.8569580  56.3548810
  62.3093010  48.3706770  54.9212210  62.1772430  46.6554200  54.0164980
  61.4837590  46.6531490  53.3567260  62.9195290  46.2313520  53.5859150
  61.7422360  48.2816910  58.0913470  62.1979310  47.5006290  58.4052090
  62.0814880  48.9923730  58.6354650  66.4899170  37.2115760  68.4237910
  65.8743440  37.7195430  67.8953370  66.1695590  36.3114090  68.3663850
  63.5518000  37.2716600  67.0196760  62.7011590  36.9722350  67.3405830
  63.3919790  37.5158610  66.1080580  64.3672330  32.4071220  67.9900060
  64.6918100  31.6760880  68.5158040  64.4028840  32.0884860  67.0881050
  64.2930170  42.5196330  61.5986090  65.0129290  43.0151620  61.2082200
  64.0911990  41.8414220  60.9539960  62.4688500  38.2853940  54.0377640
  63.3568120  38.5971170  53.8628980  62.4393590  37.4126190  53.6458220
  58.4649090  44.4577630  54.7165810  58.8064790  45.2019860  54.2209130
  57.6361800  44.7708750  55.0790640  64.7402770  39.5965780  53.5057500
  64.6566490  40.0280000  52.6553940  65.4596960  40.0564130  53.9384320
  65.8176910  42.0533300  66.5827470  65.0925100  42.6462080  66.3856860
  66.3452370  42.0456840  65.7840840  65.7690020  46.4508040  56.2339630
  65.1266180  45.7963660  56.5083350  65.3820680  46.8563130  55.4580300
  64.1587400  45.3424500  52.7715980  63.9324980  44.6254940  53.3640620
  63.7683600  45.0936940  51.9337730  63.7403650  43.2596440  54.4330140
  63.4525350  43.7209130  55.2208020  64.5355820  42.7994210  54.7014360
  55.9572050  46.7522560  54.3634110  55.9482150  47.4852250  53.7478620
  55.0370410  46.5054140  54.4561070  64.4973510  35.0945210  55.5925320
  63.8686670  35.1990880  54.8783550  64.0025430  35.3141990  56.3819200
  58.9431650  46.8150800  53.0259300  59.0443630  46.6114790  52.0961280
  58.0433390  46.5609080  53.2307080  60.4972970  34.0981820  58.4478990
  60.3740750  34.1167950  57.4988500  61.4457530  34.1460760  58.5677390
  65.2980330  35.0095820  65.8504120  64.7953930  35.7501220  66.1897930
  66.1136990  35.3979820  65.5340910  63.5902340  40.2529000  59.2965480
  62.6492480  40.2679230  59.4713170  63.9046410  39.4664960  59.7425780
  65.5927920  47.4237850  60.9719740  65.7175340  48.2469020  61.4443550
  66.4593480  47.2128580  60.6243890  56.1747760  48.6899370  52.4662440
  56.9676370  48.9788200  52.0144230  55.6552110  48.2591540  51.7874920
  65.2277930  47.9169500  53.8899180  64.9419440  47.5034640  53.0753360
  65.0297480  48.8457210  53.7699700  56.6925160  43.9102780  52.3304790
  56.5875800  43.2955130  53.0566170  56.5249380  43.3868670  51.5467800
  59.9327890  42.9722810  52.9346780  59.3837990  43.4192110  53.5789520
  60.5547150  42.4672060  53.4584450  63.9862830  44.3264910  68.8669040
  64.7272300  44.6640670  68.3636500  63.2235510  44.4956970  68.3138810
  58.1130650  40.9551340  52.0789180  58.6336310  40.2400360  51.7130330
  58.7599050  41.5937210  52.3789690  62.0975520  40.6153590  65.3320530
  61.5710740  41.1396210  64.7285670  62.4406860  41.2480980  65.9630260
  61.9750220  32.8155190  54.3057120  62.2552510  31.9723090  54.6616540
  61.2015950  33.0478300  54.8195870  58.6778680  49.0362950  54.3690920
  59.5729470  49.3747920  54.3909680  58.7096310  48.3142360  53.7415200
  65.6573030  47.5666620  67.0757120  65.0575020  47.6259180  66.3321040
  65.7866930  46.6271600  67.2053970  66.8974480  45.3084440  52.4126830
  66.0667440  45.3761090  52.8834060  67.0746310  46.1988560  52.1093690
  66.3530940  42.0531920  54.9161030  67.1149850  42.6228570  55.0220720
  66.3685310  41.4859120  55.6869340  67.3590910  42.9082020  59.7602960
  67.7299740  42.1249340  59.3538930  67.9992840  43.5971120  59.5820260
  66.4050110  42.3466290  52.0733550  66.6798950  43.2545170  51.9452770
  66.2160850  42.2828820  53.0095540  62.8025720  35.3711140  53.3687180
  63.2210600  35.1842120  52.5283840  62.4961780  34.5190190  53.6790110
  66.3015450  40.2835280  57.0662980  65.9259050  39.5163210  56.6344270
  65.5718570  40.6657980  57.5537910  65.6915070  39.4306800  66.7002500
  65.4601160  39.2019550  65.8000450  65.9519620  40.3506350  66.6547390
  64.1303140  34.6563230  69.4782200  65.0073320  34.6646630  69.8616200
  64.1423980  33.9194070  68.8674550  65.5766410  38.5092770  60.3670220
  66.1003890  38.0155420  59.7360390  66.1625830  38.6443130  61.1117790
  65.7556130  38.5932640  63.8889770  64.8058840  38.5596180  64.0034760
  65.9369140  39.5032750  63.6539540  65.0666380  37.7666120  56.3062630
  65.5625500  37.5336990  57.0911510  64.8682450  36.9277960  55.8900270
  66.4953540  36.4027070  58.8400310  66.3852820  36.2483110  59.7782580
  67.2561130  35.8748010  58.5975720  64.8419260  32.3421200  65.2983310
  65.4791480  32.9555340  65.6642500  64.9894150  32.3781860  64.3532540
  67.3843810  34.2334990  52.0806450  68.3093120  34.1016170  51.8724740
  67.3619600  34.3127810  53.0342900  67.4582300  35.0045650  54.7063160
  66.6633800  34.9390770  55.2356070  67.6625580  35.9396290  54.6948510
  64.4000720  49.0437200  58.7001550  64.9959790  48.7221770  58.0235970
  64.6578870  48.5709020  59.4914820  67.2673480  49.0509080  65.2512540
  66.7731760  49.4477950  64.5339670  66.6586770  48.4258290  65.6449820
  63.8902230  33.3342530  61.1561990  64.3310320  33.2787630  60.3083590
  63.6209820  34.2500540  61.2272170  65.7540800  32.9657770  59.1670810
  65.6929200  32.0218990  59.0201830  66.5332830  33.0737860  59.7124270
  61.7260360  31.7148630  59.8612000  62.3289730  32.2868840  60.3360520
  60.9853350  32.2788070  59.6385900  64.8694960  32.1170190  55.1352280
  65.0645590  33.0153640  55.4019710  64.0824830  31.8857270  55.6285230
  66.4221570  49.3570900  56.8958840  66.5973760  48.6708640  56.2519760
  65.7243140  49.8817950  56.5035510  54.2649220  49.7465740  54.4494150
  54.9968040  49.4625020  53.9018040  54.5242890  49.5079020  55.3393530
  61.9755580  31.8943660  70.2406940  61.8621030  32.2138270  71.1358460
  62.7925320  32.2956170  69.9444220  64.7554070  49.0415190  69.7225630
  65.5479390  48.5464420  69.5151590  65.0487220  49.7205330  70.3301240
  60.8813730  39.9136130  40.6041680  60.8007780  38.9990740  40.3333390
  60.4678150  40.4103200  39.8981390  59.0131770  41.6915150  42.4850950
  58.2373870  41.2115590  42.7749520  59.6644700  41.0120800  42.3107110
  63.0339200  46.0975340  41.2650080  62.5720730  45.3262580  41.5937250
  63.8464750  46.1241410  41.7702530  53.0098860  46.0375050  43.5584730
  53.3126900  45.1472790  43.3794950  53.7542450  46.5945270  43.3306980
  59.2602510  48.3833350  40.8854070  58.6413950  48.8390850  40.3148510
  60.1154290  48.5384810  40.4843770  58.4540760  44.3672340  42.4921110
  58.3849040  43.4262280  42.3310240  59.2160620  44.4573750  43.0643680
  59.4845930  37.1742720  42.7190040  59.8610750  36.3014600  42.6063710
  59.3865440  37.5101420  41.8280480  63.2670050  34.6693160  39.6518380
  64.0879670  34.1789730  39.6943860  63.3004130  35.2590820  40.4050220
  67.5569600  36.6859910  46.2162010  66.8521770  37.0741620  45.6977120
  67.8227520  37.3810200  46.8182940  60.1265860  43.2672590  38.2785980
  59.5083130  43.7322040  37.7148700  60.6389110  43.9600070  38.6955490
  63.5031530  36.6093540  42.4245920  62.7987100  36.8978430  43.0049030
  63.8643690  37.4193650  42.0645480  54.2016720  44.7629260  46.7718760
  54.8190720  45.4380340  46.4903210  53.3409840  45.1717240  46.6806260
  65.1194310  46.2268670  44.6873400  64.4357830  46.8967780  44.6790070
  65.6588600  46.4249320  43.9218260  66.5718450  36.0548330  42.8155130
  65.6243360  36.0887310  42.9470560  66.8968440  36.8687280  43.2004490
  57.1037990  32.3545510  41.1111120  57.4112970  31.7992400  40.3946620
  56.1738690  32.4889970  40.9284110  62.6553050  48.0712800  43.4018580
  62.6680210  47.6675090  42.5340840  62.1028270  48.8460090  43.2980010
  63.9498470  44.7929020  38.4908750  63.8394800  43.8503350  38.6158170
  63.9466720  45.1544660  39.3771510  62.0538490  42.9742640  44.7301190
  62.4707280  42.7602750  43.8954650  62.7778310  43.2315430  45.3009810
  59.4918750  40.4194340  37.8471240  58.5648030  40.3531720  38.0759710
  59.6443570  41.3574470  37.7326480  59.4787830  36.6911340  34.8438400
  58.5391500  36.8525300  34.9290860  59.7971090  37.4097020  34.2974390
  66.0000590  41.3729860  44.8217430  65.1719220  41.4422950  44.3467560
  66.5951070  41.9584170  44.3533260  63.5216040  41.9814640  38.3506490
  62.9028460  41.6434190  37.7032790  63.5040490  41.3374400  39.0585680
  62.9642600  38.1599180  45.7672300  62.5513780  38.9852890  46.0212290
  62.2318550  37.5744220  45.5748660  63.6542700  48.2058510  46.4553280
  63.1773260  49.0130700  46.2625890  62.9704490  47.5536840  46.6079490
  61.6980740  41.2201450  35.3579240  62.1374020  40.3823880  35.2117060
  62.4109160  41.8530850  35.4443380  59.8076120  46.1597520  39.3260480
  60.2472030  46.9021850  38.9115870  59.7463010  46.4024090  40.2499440
  55.2827090  47.1843350  50.2280500  55.2542520  47.5886300  49.3608930
  55.1192060  46.2553710  50.0652100  65.2797880  32.4744260  33.6720280
  64.9670540  32.5671090  34.5719350  66.0410350  33.0525290  33.6217710
  67.2341910  47.9670450  51.5244670  67.7101630  48.4453340  52.2033750
  67.8549070  47.8987940  50.7990170  66.6375160  45.1583300  48.6844680
  66.7638220  44.9195180  47.7661860  66.6796540  44.3267840  49.1566760
  60.4991900  48.8611300  47.2539490  61.0136570  48.7719310  48.0561920
  59.6560980  49.2071000  47.5467400  62.4746300  49.1466640  36.6823490
  62.3147440  48.8569580  37.5805320  62.3093010  48.3706770  36.1468720
  54.9534680  48.9265170  38.4595110  54.7777160  48.0100710  38.2462910
  54.0990420  49.2852460  38.6992910  62.1772430  46.6554200  35.2421490
  61.4837590  46.6531490  34.5823770  62.9195290  46.2313520  34.8115660
  61.7422360  48.2816910  39.3169980  62.1979310  47.5006290  39.6308600
  62.0814880  48.9923730  39.8611160  66.4899170  37.2115760  49.6494420
  65.8743440  37.7195430  49.1209880  66.1695590  36.3114090  49.5920360
  63.5518000  37.2716600  48.2453270  62.7011590  36.9722350  48.5662340
  63.3919790  37.5158610  47.3337090  60.6467710  38.7718350  50.3452060
  60.9721120  37.9382100  50.0054290  61.4348040  39.2946870  50.4930390
  57.3802500  32.8049830  36.3927120  56.7556680  32.8009700  37.1180430
  57.2932620  31.9380790  35.9963090  61.2855660  38.3136070  37.8393190
  60.6864550  39.0371870  37.6556810  61.8335270  38.2512850  37.0569640
  59.8920530  36.9499610  39.8696470  60.2850100  37.2671810  39.0565160
  60.2537380  36.0711490  39.9840990  60.4775670  39.5405360  43.9647250
  59.7456790  40.0492170  44.3137350  60.0800010  38.7235340  43.6636030
  56.9153060  36.2159560  42.3699740  56.9189120  35.7749510  41.5204280
  57.8104180  36.5376890  42.4771560  56.9773210  37.2171640  35.3606500
  57.0986030  37.1758120  36.3092320  56.5921720  38.0795790  35.2053230
  60.9401580  34.9939040  43.3770190  60.9574320  35.4447690  44.2212040
  60.6917160  34.0944680  43.5903630  55.9894710  39.5272780  34.7589800
  55.4211610  39.0791030  34.1325710  56.6983710  39.8865560  34.2254950
  64.3672330  32.4071220  49.2156570  64.6918100  31.6760880  49.7414550
  64.4028840  32.0884860  48.3137560  64.2930170  42.5196330  42.8242600
  65.0129290  43.0151620  42.4338710  64.0911990  41.8414220  42.1796470
  59.7540110  33.9134290  36.9671990  58.9404720  33.4147460  36.8917300
  59.5602060  34.7532540  36.5508340  59.6748970  42.5905390  48.7111600
  59.6086280  41.6701060  48.4569190  59.0454110  42.6880830  49.4256240
  62.4688500  38.2853940  35.2634150  63.3568120  38.5971170  35.0885490
  62.4393590  37.4126190  34.8714730  58.4649090  44.4577630  35.9422320
  58.8064790  45.2019860  35.4465640  57.6361800  44.7708750  36.3047150
  59.6065700  45.4125960  48.4615400  59.6210240  44.4806920  48.2434310
  58.8990800  45.4985720  49.1005170  64.7402770  39.5965780  34.7314010
  64.6566490  40.0280000  33.8810450  65.4596960  40.0564130  35.1640830
  65.8176910  42.0533300  47.8083980  65.0925100  42.6462080  47.6113370
  66.3452370  42.0456840  47.0097350  65.7690020  46.4508040  37.4596140
  65.1266180  45.7963660  37.7339860  65.3820680  46.8563130  36.6836810
  61.3476500  43.7793470  41.3067830  61.7000320  43.1821600  40.6469200
  60.4638830  43.4537700  41.4776080  57.4339780  44.5391160  38.7138240
  58.1210910  45.0860370  39.0945830  56.6472200  45.0831890  38.7487850
  59.0399600  47.0543530  45.5555900  59.6841820  47.2602910  46.2329320
  59.4029040  46.2931930  45.1026750  60.3131680  45.0575880  44.2733350
  60.9553910  44.3569040  44.3865520  60.8381030  45.8374320  44.0930240
  64.1587400  45.3424500  33.9972490  63.9324980  44.6254940  34.5897130
  63.7683600  45.0936940  33.1594240  62.0869300  45.8570780  47.4769410
  62.4225540  46.4437470  48.1547330  61.1669640  45.7263490  47.7067200
  49.9403430  49.3691360  34.7716950  50.3001070  49.9680700  34.1174220
  49.7995770  49.9151250  35.5451980  63.7403650  43.2596440  35.6586650
  63.4525350  43.7209130  36.4464530  64.5355820  42.7994210  35.9270870
  57.9157880  45.9062110  50.6457470  57.5954750  45.1871350  51.1903160
  57.2416240  46.5817180  50.7193530  55.9572050  46.7522560  35.5890620
  55.9482150  47.4852250  34.9735130  55.0370410  46.5054140  35.6817580
  61.1311480  36.1388270  46.0094270  61.4992300  35.3183480  46.3373840
  60.2709680  36.1990160  46.4249920  64.4973510  35.0945210  36.8181830
  63.8686670  35.1990880  36.1040060  64.0025430  35.3141990  37.6075710
  58.9431650  46.8150800  34.2515810  59.0443630  46.6114790  33.3217790
  58.0433390  46.5609080  34.4563590  60.4972970  34.0981820  39.6735500
  60.3740750  34.1167950  38.7245010  61.4457530  34.1460760  39.7933900
  57.5849760  49.3337120  38.9463480  57.8391260  49.2958510  38.0242850
  56.6362240  49.2070450  38.9391730  65.2980330  35.0095820  47.0760630
  64.7953930  35.7501220  47.4154440  66.1136990  35.3979820  46.7597420
  63.5902340  40.2529000  40.5221990  62.6492480  40.2679230  40.6969680
  63.9046410  39.4664960  40.9682290  53.5683980  41.9348600  34.0825950
  54.3347250  41.8229960  34.6451380  53.6458670  41.2386570  33.4302720
  65.5927920  47.4237850  42.1976250  65.7175340  48.2469020  42.6700060
  66.4593480  47.2128580  41.8500400  49.9490930  45.5842630  37.7434890
  49.0230710  45.8263770  37.7340300  50.4147360  46.4116890  37.6219640
  52.0703730  48.7015130  51.0578960  52.8716460  49.0227180  51.4714360
  51.5555550  48.3410710  51.7798870  56.1747760  48.6899370  33.6918950
  56.9676370  48.9788200  33.2400740  55.6552110  48.2591540  33.0131430
  60.9068360  44.8095000  51.0054370  60.3006520  44.8326600  50.2650120
  60.6022470  44.0778040  51.5421620  62.3368730  48.5375290  49.6163780
  63.2890480  48.4533310  49.5664020  62.1896950  49.2017000  50.2897570
  65.2277930  47.9169500  35.1155690  64.9419440  47.5034640  34.3009870
  65.0297480  48.8457210  34.9956210  56.6925160  43.9102780  33.5561300
  56.5875800  43.2955130  34.2822680  56.5249380  43.3868670  32.7724310
  59.9327890  42.9722810  34.1603290  59.3837990  43.4192110  34.8046030
  60.5547150  42.4672060  34.6840960  63.9862830  44.3264910  50.0925550
  64.7272300  44.6640670  49.5893010  63.2235510  44.4956970  49.5395320
  55.6003010  41.9313730  36.0568590  56.0219430  41.7653600  36.8999980
  55.7253850  41.1213960  35.5623730  58.1130650  40.9551340  33.3045690
  58.6336310  40.2400360  32.9386840  58.7599050  41.5937210  33.6046200
  62.6608490  42.3779740  48.6280760  63.0749510  42.5324820  49.4771180
  61.7259490  42.5034960  48.7906540  63.1330660  39.7175900  50.6319910
  63.7151430  38.9628220  50.5440390  63.3092430  40.2483340  49.8551390
  57.4223720  42.3300220  46.5976690  57.8411830  43.1732950  46.4252930
  56.5032350  42.4672260  46.3683470  59.7587620  40.0616400  47.9814530
  59.8783830  39.4657540  48.7209370  60.6181620  40.0986090  47.5615830
  62.0975520  40.6153590  46.5577040  61.5710740  41.1396210  45.9542180
  62.4406860  41.2480980  47.1886770  55.2731140  48.6353230  47.7134420
  54.7352230  49.3599290  47.3943120  55.5265100  48.1583570  46.9231760
  61.3449820  36.2203560  49.4723370  60.6565340  35.5585100  49.4073360
  62.0655840  35.7741830  49.9171830  61.9750220  32.8155190  35.5313630
  62.2552510  31.9723090  35.8873050  61.2015950  33.0478300  36.0452380
  58.1293350  49.8704440  47.9721070  58.0552050  50.7739580  48.2793440
  57.2272190  49.5516340  47.9443140  56.5129640  34.0482200  33.9760830
  56.1651640  33.3706190  33.3963280  56.7142410  33.5871710  34.7904220
  58.6778680  49.0362950  35.5947430  59.5729470  49.3747920  35.6166190
  58.7096310  48.3142360  34.9671710  52.3174840  44.4090000  33.8234430
  52.7549710  44.9519670  34.4792010  52.8022570  43.5836950  33.8330770
  54.1282560  45.5288040  38.9356660  53.8278100  45.4053010  39.8360570
  54.0220050  44.6696630  38.5272390  65.6573030  47.5666620  48.3013630
  65.0575020  47.6259180  47.5577550  65.7866930  46.6271600  48.4310480
  66.8974480  45.3084440  33.6383340  66.0667440  45.3761090  34.1090570
  67.0746310  46.1988560  33.3350200  66.3530940  42.0531920  36.1417540
  67.1149850  42.6228570  36.2477230  66.3685310  41.4859120  36.9125850
  67.3590910  42.9082020  40.9859470  67.7299740  42.1249340  40.5795440
  67.9992840  43.5971120  40.8076770  64.3424670  44.2918600  46.3989790
  63.5284510  44.7215760  46.6615580  64.7498870  44.9037010  45.7858840
  66.4050110  42.3466290  33.2990060  66.6798950  43.2545170  33.1709280
  66.2160850  42.2828820  34.2352050  62.8025720  35.3711140  34.5943690
  63.2210600  35.1842120  33.7540350  62.4961780  34.5190190  34.9046620
  66.3015450  40.2835280  38.2919490  65.9259050  39.5163210  37.8600780
  65.5718570  40.6657980  38.7794420  65.6915070  39.4306800  47.9259010
  65.4601160  39.2019550  47.0256960  65.9519620  40.3506350  47.8803900
  64.1303140  34.6563230  50.7038710  65.0073320  34.6646630  51.0872710
  64.1423980  33.9194070  50.0931060  65.5766410  38.5092770  41.5926730
  66.1003890  38.0155420  40.9616900  66.1625830  38.6443130  42.3374300
  65.7556130  38.5932640  45.1146280  64.8058840  38.5596180  45.2291270
  65.9369140  39.5032750  44.8796050  65.0666380  37.7666120  37.5319140
  65.5625500  37.5336990  38.3168020  64.8682450  36.9277960  37.1156780
  66.4953540  36.4027070  40.0656820  66.3852820  36.2483110  41.0039090
  67.2561130  35.8748010  39.8232230  64.8419260  32.3421200  46.5239820
  65.4791480  32.9555340  46.8899010  64.9894150  32.3781860  45.5789050
  67.3843810  34.2334990  33.3062960  68.3093120  34.1016170  33.0981250
  67.3619600  34.3127810  34.2599410  67.4582300  35.0045650  35.9319670
  66.6633800  34.9390770  36.4612580  67.6625580  35.9396290  35.9205020
  64.4000720  49.0437200  39.9258060  64.9959790  48.7221770  39.2492480
  64.6578870  48.5709020  40.7171330  56.0069320  47.0314700  45.6758410
  55.7660680  47.2989260  44.7888930  56.9471960  47.2020430  45.7309270
  60.8498300  33.1517450  49.0707210  61.4638710  33.4696740  48.4088290
  61.3947860  32.6666040  49.6903070  67.2673480  49.0509080  46.4769050
  66.7731760  49.4477950  45.7596180  66.6586770  48.4258290  46.8706330
  52.1451320  48.4217360  47.1946470  51.5511640  48.2902060  47.9336510
  52.1375160  47.5855500  46.7288570  61.5906340  31.7149590  45.3976500
  60.7166180  32.0484700  45.1949430  61.4817090  31.2422770  46.2228370
  62.4978320  33.9220460  46.7818220  62.1691680  33.1072220  46.4019950
  63.4460620  33.8790270  46.6583910  64.9512930  49.6932500  43.7555790
  64.4915900  50.4448310  43.3813810  64.3225390  48.9738970  43.6970590
  51.7763550  45.7875740  46.1454510  51.0497610  45.1681030  46.0780460
  51.8372700  46.1816350  45.2752590  55.3808650  48.0020740  42.9303920
  55.8973670  47.3908100  42.4052180  56.0306030  48.5049520  43.4214930
  58.1204150  48.8929230  43.7572900  58.4081960  48.6383530  42.8805910
  58.6327370  48.3406590  44.3478470  59.3381160  32.6319430  44.3369410
  58.5552950  33.1064930  44.6166170  59.0444090  31.7274260  44.2282590
  63.8902230  33.3342530  42.3818500  64.3310320  33.2787630  41.5340100
  63.6209820  34.2500540  42.4528680  65.7540800  32.9657770  40.3927320
  65.6929200  32.0218990  40.2458340  66.5332830  33.0737860  40.9380780
  61.7260360  31.7148630  41.0868510  62.3289730  32.2868840  41.5617030
  60.9853350  32.2788070  40.8642410  64.8694960  32.1170190  36.3608790
  65.0645590  33.0153640  36.6276220  64.0824830  31.8857270  36.8541740
  51.6656250  47.7983360  36.8001410  51.1403870  48.1791390  36.0963370
  51.5900830  48.4234130  37.5211120  58.1876510  49.8145330  51.1241100
  59.1143820  49.5789600  51.1677060  58.1726940  50.6417330  50.6427130
  66.4221570  49.3570900  38.1215350  66.5973760  48.6708640  37.4776270
  65.7243140  49.8817950  37.7292020  54.2649220  49.7465740  35.6750660
  54.9968040  49.4625020  35.1274550  54.5242890  49.5079020  36.5650040
  53.4264010  45.8630470  35.6796990  52.7972890  46.3315570  36.2282820
  53.5411840  45.0179690  36.1143180  61.9755580  31.8943660  51.4663450
  61.8621030  32.2138270  52.3614970  62.7925320  32.2956170  51.1700730
  64.7554070  49.0415190  50.9482140  65.5479390  48.5464420  50.7408100
  65.0487220  49.7205330  51.5557750  60.8813730  39.9136130  21.8298190
  60.8007780  38.9990740  21.5589900  60.4678150  40.4103200  21.1237900
  59.0131770  41.6915150  23.7107460  58.2373870  41.2115590  24.0006030
  59.6644700  41.0120800  23.5363620  63.0339200  46.0975340  22.4906590
  62.5720730  45.3262580  22.8193760  63.8464750  46.1241410  22.9959040
  59.2602510  48.3833350  22.1110580  58.6413950  48.8390850  21.5405020
  60.1154290  48.5384810  21.7100280  58.4540760  44.3672340  23.7177620
  58.3849040  43.4262280  23.5566750  59.2160620  44.4573750  24.2900190
  59.4845930  37.1742720  23.9446550  59.8610750  36.3014600  23.8320220
  59.3865440  37.5101420  23.0536990  53.6150940  35.5468350  19.4063990
  53.7217690  36.4472080  19.7132750  52.7043300  35.4986320  19.1158640
  63.2670050  34.6693160  20.8774890  64.0879670  34.1789730  20.9200370
  63.3004130  35.2590820  21.6306730  67.5569600  36.6859910  27.4418520
  66.8521770  37.0741620  26.9233630  67.8227520  37.3810200  28.0439450
  53.7394770  33.1553280  28.0052590  53.7413210  33.6725670  27.1998490
  52.9099080  32.6783460  27.9822520  60.1265860  43.2672590  19.5042490
  59.5083130  43.7322040  18.9405210  60.6389110  43.9600070  19.9212000
  63.5031530  36.6093540  23.6502430  62.7987100  36.8978430  24.2305540
  63.8643690  37.4193650  23.2901990  54.2016720  44.7629260  27.9975270
  54.8190720  45.4380340  27.7159720  53.3409840  45.1717240  27.9062770
  65.1194310  46.2268670  25.9129910  64.4357830  46.8967780  25.9046580
  65.6588600  46.4249320  25.1474770  66.5718450  36.0548330  24.0411640
  65.6243360  36.0887310  24.1727070  66.8968440  36.8687280  24.4261000
  57.1037990  32.3545510  22.3367630  57.4112970  31.7992400  21.6203130
  56.1738690  32.4889970  22.1540620  62.6553050  48.0712800  24.6275090
  62.6680210  47.6675090  23.7597350  62.1028270  48.8460090  24.5236520
  63.9498470  44.7929020  19.7165260  63.8394800  43.8503350  19.8414680
  63.9466720  45.1544660  20.6028020  62.0538490  42.9742640  25.9557700
  62.4707280  42.7602750  25.1211160  62.7778310  43.2315430  26.5266320
  59.4918750  40.4194340  19.0727750  58.5648030  40.3531720  19.3016220
  59.6443570  41.3574470  18.9582990  59.4787830  36.6911340  16.0694910
  58.5391500  36.8525300  16.1547370  59.7971090  37.4097020  15.5230900
  66.0000590  41.3729860  26.0473940  65.1719220  41.4422950  25.5724070
  66.5951070  41.9584170  25.5789770  63.5216040  41.9814640  19.5763000
  62.9028460  41.6434190  18.9289300  63.5040490  41.3374400  20.2842190
  62.9642600  38.1599180  26.9928810  62.5513780  38.9852890  27.2468800
  62.2318550  37.5744220  26.8005170  55.0975390  40.9459080  21.8547480
  54.6932390  40.2336330  21.3593380  55.1838510  40.6012320  22.7435520
  55.5657090  44.6326640  24.0186690  55.2685380  44.0272110  23.3394470
  56.5156910  44.6703950  23.9076050  63.6542700  48.2058510  27.6809790
  63.1773260  49.0130700  27.4882400  62.9704490  47.5536840  27.8336000
  54.6575520  44.3708330  30.6694490  53.7604050  44.5948300  30.9167890
  54.6828390  44.4943270  29.7205890  61.6980740  41.2201450  16.5835750
  62.1374020  40.3823880  16.4373570  62.4109160  41.8530850  16.6699890
  59.8076120  46.1597520  20.5516990  60.2472030  46.9021850  20.1372380
  59.7463010  46.4024090  21.4755950  55.2827090  47.1843350  31.4537010
  55.2542520  47.5886300  30.5865440  55.1192060  46.2553710  31.2908610
  65.2797880  32.4744260  14.8976790  64.9670540  32.5671090  15.7975860
  66.0410350  33.0525290  14.8474220  67.2341910  47.9670450  32.7501180
  67.7101630  48.4453340  33.4290260  67.8549070  47.8987940  32.0246680
  66.6375160  45.1583300  29.9101190  66.7638220  44.9195180  28.9918370
  66.6796540  44.3267840  30.3823270  60.4991900  48.8611300  28.4796000
  61.0136570  48.7719310  29.2818430  59.6560980  49.2071000  28.7723910
  62.4746300  49.1466640  17.9080000  62.3147440  48.8569580  18.8061830
  62.3093010  48.3706770  17.3725230  54.9534680  48.9265170  19.6851620
  54.7777160  48.0100710  19.4719420  54.0990420  49.2852460  19.9249420
  62.1772430  46.6554200  16.4678000  61.4837590  46.6531490  15.8080280
  62.9195290  46.2313520  16.0372170  61.7422360  48.2816910  20.5426490
  62.1979310  47.5006290  20.8565110  62.0814880  48.9923730  21.0867670
  66.4899170  37.2115760  30.8750930  65.8743440  37.7195430  30.3466390
  66.1695590  36.3114090  30.8176870  58.5513490  36.0507650  28.3413120
  58.0892860  36.2590670  29.1533060  58.1491600  35.2367000  28.0383790
  63.5518000  37.2716600  29.4709780  62.7011590  36.9722350  29.7918850
  63.3919790  37.5158610  28.5593600  60.6467710  38.7718350  31.5708570
  60.9721120  37.9382100  31.2310800  61.4348040  39.2946870  31.7186900
  57.3802500  32.8049830  17.6183630  56.7556680  32.8009700  18.3436940
  57.2932620  31.9380790  17.2219600  56.3019580  33.7286460  24.5967400
  56.5991910  34.6349290  24.5159420  56.8505140  33.2405240  23.9826970
  54.0557900  38.3072700  20.4659050  53.8298820  38.0909870  21.3705670
  53.2750430  38.7401160  20.1205020  61.2855660  38.3136070  19.0649700
  60.6864550  39.0371870  18.8813320  61.8335270  38.2512850  18.2826150
  56.4957110  39.2058280  31.1319320  56.4000710  38.2653010  30.9819720
  57.3389090  39.4273350  30.7367390  59.8920530  36.9499610  21.0952980
  60.2850100  37.2671810  20.2821670  60.2537380  36.0711490  21.2097500
  58.2012700  35.7006920  32.3549840  57.5111020  35.5079120  32.9895930
  58.9445000  35.9841560  32.8874140  60.4775670  39.5405360  25.1903760
  59.7456790  40.0492170  25.5393860  60.0800010  38.7235340  24.8892540
  56.9773210  37.2171640  16.5863010  57.0986030  37.1758120  17.5348830
  56.5921720  38.0795790  16.4309740  60.9401580  34.9939040  24.6026700
  60.9574320  35.4447690  25.4468550  60.6917160  34.0944680  24.8160140
  55.9894710  39.5272780  15.9846310  55.4211610  39.0791030  15.3582220
  56.6983710  39.8865560  15.4511460  64.3672330  32.4071220  30.4413080
  64.6918100  31.6760880  30.9671060  64.4028840  32.0884860  29.5394070
  53.5342190  43.5230970  18.2572720  52.7604450  42.9828590  18.0971440
  54.2636820  43.0037580  17.9190480  64.2930170  42.5196330  24.0499110
  65.0129290  43.0151620  23.6595220  64.0911990  41.8414220  23.4052980
  59.7540110  33.9134290  18.1928500  58.9404720  33.4147460  18.1173810
  59.5602060  34.7532540  17.7764850  59.6748970  42.5905390  29.9368110
  59.6086280  41.6701060  29.6825700  59.0454110  42.6880830  30.6512750
  62.4688500  38.2853940  16.4890660  63.3568120  38.5971170  16.3142000
  62.4393590  37.4126190  16.0971240  58.4649090  44.4577630  17.1678830
  58.8064790  45.2019860  16.6722150  57.6361800  44.7708750  17.5303660
  59.6065700  45.4125960  29.6871910  59.6210240  44.4806920  29.4690820
  58.8990800  45.4985720  30.3261680  64.7402770  39.5965780  15.9570520
  64.6566490  40.0280000  15.1066960  65.4596960  40.0564130  16.3897340
  65.8176910  42.0533300  29.0340490  65.0925100  42.6462080  28.8369880
  66.3452370  42.0456840  28.2353860  65.7690020  46.4508040  18.6852650
  65.1266180  45.7963660  18.9596370  65.3820680  46.8563130  17.9093320
  61.3476500  43.7793470  22.5324340  61.7000320  43.1821600  21.8725710
  60.4638830  43.4537700  22.7032590  57.4339780  44.5391160  19.9394750
  58.1210910  45.0860370  20.3202340  56.6472200  45.0831890  19.9744360
  56.7366990  41.5437190  19.5520110  57.1929770  42.3542440  19.7780300
  56.3855200  41.2260330  20.3838600  59.0399600  47.0543530  26.7812410
  59.6841820  47.2602910  27.4585830  59.4029040  46.2931930  26.3283260
  60.3131680  45.0575880  25.4989860  60.9553910  44.3569040  25.6122030
  60.8381030  45.8374320  25.3186750  64.1587400  45.3424500  15.2229000
  63.9324980  44.6254940  15.8153640  63.7683600  45.0936940  14.3850750
  62.0869300  45.8570780  28.7025920  62.4225540  46.4437470  29.3803840
  61.1669640  45.7263490  28.9323710  49.9403430  49.3691360  15.9973460
  50.3001070  49.9680700  15.3430730  49.7995770  49.9151250  16.7708490
  63.7403650  43.2596440  16.8843160  63.4525350  43.7209130  17.6721040
  64.5355820  42.7994210  17.1527380  49.9245290  47.6346220  30.4715860
  50.0336410  46.6940960  30.3311250  49.2725850  47.9000970  29.8229590
  57.9157880  45.9062110  31.8713980  57.5954750  45.1871350  32.4159670
  57.2416240  46.5817180  31.9450040  55.9572050  46.7522560  16.8147130
  55.9482150  47.4852250  16.1991640  55.0370410  46.5054140  16.9074090
  61.1311480  36.1388270  27.2350780  61.4992300  35.3183480  27.5630350
  60.2709680  36.1990160  27.6506430  64.4973510  35.0945210  18.0438340
  63.8686670  35.1990880  17.3296570  64.0025430  35.3141990  18.8332220
  58.9431650  46.8150800  15.4772320  59.0443630  46.6114790  14.5474300
  58.0433390  46.5609080  15.6820100  56.4657540  37.3731160  19.4596220
  55.7573690  37.8417500  19.9009830  56.7502020  36.7153170  20.0941410
  58.0913470  38.7927860  27.4588750  58.5898720  39.2673680  28.1240600
  58.2336420  37.8691380  27.6658780  60.4972970  34.0981820  20.8992010
  60.3740750  34.1167950  19.9501520  61.4457530  34.1460760  21.0190410
  57.5849760  49.3337120  20.1719990  57.8391260  49.2958510  19.2499360
  56.6362240  49.2070450  20.1648240  54.6692560  35.6816240  16.8346930
  55.5183090  36.1186390  16.7687120  54.3023830  35.9936500  17.6618990
  65.2980330  35.0095820  28.3017140  64.7953930  35.7501220  28.6410950
  66.1136990  35.3979820  27.9853930  63.5902340  40.2529000  21.7478500
  62.6492480  40.2679230  21.9226190  63.9046410  39.4664960  22.1938800
  53.5683980  41.9348600  15.3082460  54.3347250  41.8229960  15.8707890
  53.6458670  41.2386570  14.6559230  65.5927920  47.4237850  23.4232760
  65.7175340  48.2469020  23.8956570  66.4593480  47.2128580  23.0756910
  53.0645450  49.5169060  23.0949890  53.8007930  48.9684520  23.3658460
  53.4486370  50.3825070  22.9555880  49.9490930  45.5842630  18.9691400
  49.0230710  45.8263770  18.9596810  50.4147360  46.4116890  18.8476150
  52.0703730  48.7015130  32.2835470  52.8716460  49.0227180  32.6970870
  51.5555550  48.3410710  33.0055380  56.1747760  48.6899370  14.9175460
  56.9676370  48.9788200  14.4657250  55.6552110  48.2591540  14.2387940
  60.9068360  44.8095000  32.2310880  60.3006520  44.8326600  31.4906630
  60.6022470  44.0778040  32.7678130  62.3368730  48.5375290  30.8420290
  63.2890480  48.4533310  30.7920530  62.1896950  49.2017000  31.5154080
  65.2277930  47.9169500  16.3412200  64.9419440  47.5034640  15.5266380
  65.0297480  48.8457210  16.2212720  56.6925160  43.9102780  14.7817810
  56.5875800  43.2955130  15.5079190  56.5249380  43.3868670  13.9980820
  56.8439480  42.5959580  30.7607040  56.0785150  43.1644580  30.6761710
  57.0255440  42.3035790  29.8675270  59.9327890  42.9722810  15.3859800
  59.3837990  43.4192110  16.0302540  60.5547150  42.4672060  15.9097470
  63.9862830  44.3264910  31.3182060  64.7272300  44.6640670  30.8149520
  63.2235510  44.4956970  30.7651830  55.6003010  41.9313730  17.2825100
  56.0219430  41.7653600  18.1256490  55.7253850  41.1213960  16.7880240
  58.1130650  40.9551340  14.5302200  58.6336310  40.2400360  14.1643350
  58.7599050  41.5937210  14.8302710  62.6608490  42.3779740  29.8537270
  63.0749510  42.5324820  30.7027690  61.7259490  42.5034960  30.0163050
  63.1330660  39.7175900  31.8576420  63.7151430  38.9628220  31.7696900
  63.3092430  40.2483340  31.0807900  54.2502730  34.8772650  30.1693370
  54.1559600  34.2593400  29.4444240  53.6700120  35.6038940  29.9423280
  57.0164170  33.4345890  27.2020760  56.5681470  33.4570150  26.3566310
  56.3829370  33.0364910  27.7991060  57.4223720  42.3300220  27.8233200
  57.8411830  43.1732950  27.6509440  56.5032350  42.4672260  27.5939980
  59.7587620  40.0616400  29.2071040  59.8783830  39.4657540  29.9465880
  60.6181620  40.0986090  28.7872340  62.0975520  40.6153590  27.7833550
  61.5710740  41.1396210  27.1798690  62.4406860  41.2480980  28.4143280
  54.4961910  38.0046960  14.2283260  54.2950970  37.1414320  14.5896600
  54.3253960  37.9180320  13.2904860  55.2731140  48.6353230  28.9390930
  54.7352230  49.3599290  28.6199630  55.5265100  48.1583570  28.1488270
  56.5256390  36.6037750  30.4646860  57.1156080  36.2953600  31.1524680
  55.7076630  36.1317500  30.6206760  61.3449820  36.2203560  30.6979880
  60.6565340  35.5585100  30.6329870  62.0655840  35.7741830  31.1428340
  61.9750220  32.8155190  16.7570140  62.2552510  31.9723090  17.1129560
  61.2015950  33.0478300  17.2708890  53.2944710  35.1047580  14.2161140
  53.5970610  35.1115010  13.3080290  54.0339300  34.7545440  14.7128800
  58.1293350  49.8704440  29.1977580  58.0552050  50.7739580  29.5049950
  57.2272190  49.5516340  29.1699650  56.5129640  34.0482200  15.2017340
  56.1651640  33.3706190  14.6219790  56.7142410  33.5871710  16.0160730
  58.6778680  49.0362950  16.8203940  59.5729470  49.3747920  16.8422700
  58.7096310  48.3142360  16.1928220  52.3174840  44.4090000  15.0490940
  52.7549710  44.9519670  15.7048520  52.8022570  43.5836950  15.0587280
  49.5320640  47.1979030  22.5011200  49.8623650  46.3300090  22.2689840
  49.9611640  47.4037550  23.3316160  54.1282560  45.5288040  20.1613170
  53.8278100  45.4053010  21.0617080  54.0220050  44.6696630  19.7528900
  50.0210850  48.0649620  25.2392830  49.5841840  48.2450420  26.0716980
  50.5888530  48.8224240  25.0974550  65.6573030  47.5666620  29.5270140
  65.0575020  47.6259180  28.7834060  65.7866930  46.6271600  29.6566990
  66.8974480  45.3084440  14.8639850  66.0667440  45.3761090  15.3347080
  67.0746310  46.1988560  14.5606710  66.3530940  42.0531920  17.3674050
  67.1149850  42.6228570  17.4733740  66.3685310  41.4859120  18.1382360
  67.3590910  42.9082020  22.2115980  67.7299740  42.1249340  21.8051950
  67.9992840  43.5971120  22.0333280  64.3424670  44.2918600  27.6246300
  63.5284510  44.7215760  27.8872090  64.7498870  44.9037010  27.0115350
  66.4050110  42.3466290  14.5246570  66.6798950  43.2545170  14.3965790
  66.2160850  42.2828820  15.4608560  62.8025720  35.3711140  15.8200200
  63.2210600  35.1842120  14.9796860  62.4961780  34.5190190  16.1303130
  66.3015450  40.2835280  19.5176000  65.9259050  39.5163210  19.0857290
  65.5718570  40.6657980  20.0050930  65.6915070  39.4306800  29.1515520
  65.4601160  39.2019550  28.2513470  65.9519620  40.3506350  29.1060410
  64.1303140  34.6563230  31.9295220  65.0073320  34.6646630  32.3129220
  64.1423980  33.9194070  31.3187570  65.5766410  38.5092770  22.8183240
  66.1003890  38.0155420  22.1873410  66.1625830  38.6443130  23.5630810
  65.7556130  38.5932640  26.3402790  64.8058840  38.5596180  26.4547780
  65.9369140  39.5032750  26.1052560  51.6100570  36.8434320  15.4501420
  52.3192270  36.4217540  14.9648700  50.8940510  36.9109550  14.8184770
  51.2574730  32.8973650  14.4904070  51.9802860  33.4382590  14.8085290
  51.5299250  32.6237070  13.6145610  65.0666380  37.7666120  18.7575650
  65.5625500  37.5336990  19.5424530  64.8682450  36.9277960  18.3413290
  66.4953540  36.4027070  21.2913330  66.3852820  36.2483110  22.2295600
  67.2561130  35.8748010  21.0488740  64.8419260  32.3421200  27.7496330
  65.4791480  32.9555340  28.1155520  64.9894150  32.3781860  26.8045560
  67.3843810  34.2334990  14.5319470  68.3093120  34.1016170  14.3237760
  67.3619600  34.3127810  15.4855920  67.4582300  35.0045650  17.1576180
  66.6633800  34.9390770  17.6869090  67.6625580  35.9396290  17.1461530
  64.4000720  49.0437200  21.1514570  64.9959790  48.7221770  20.4748990
  64.6578870  48.5709020  21.9427840  52.3063290  45.4755110  31.3005200
  52.2632920  45.1048020  32.1819660  52.4374300  46.4132680  31.4407020
  56.0069320  47.0314700  26.9014920  55.7660680  47.2989260  26.0145440
  56.9471960  47.2020430  26.9565780  58.2123740  33.4947390  30.6571430
  58.1512630  34.0869220  31.4066840  59.1524120  33.3873350  30.5121690
  60.8498300  33.1517450  30.2963720  61.4638710  33.4696740  29.6344800
  61.3947860  32.6666040  30.9159580  67.2673480  49.0509080  27.7025560
  66.7731760  49.4477950  26.9852690  66.6586770  48.4258290  28.0962840
  52.1451320  48.4217360  28.4202980  51.5511640  48.2902060  29.1593020
  52.1375160  47.5855500  27.9545080  61.5906340  31.7149590  26.6233010
  60.7166180  32.0484700  26.4205940  61.4817090  31.2422770  27.4484880
  62.4978320  33.9220460  28.0074730  62.1691680  33.1072220  27.6276460
  63.4460620  33.8790270  27.8840420  64.9512930  49.6932500  24.9812300
  64.4915900  50.4448310  24.6070320  64.3225390  48.9738970  24.9227100
  55.3808650  48.0020740  24.1560430  55.8973670  47.3908100  23.6308690
  56.0306030  48.5049520  24.6471440  58.1204150  48.8929230  24.9829410
  58.4081960  48.6383530  24.1062420  58.6327370  48.3406590  25.5734980
  59.3381160  32.6319430  25.5625920  58.5552950  33.1064930  25.8422680
  59.0444090  31.7274260  25.4539100  63.8902230  33.3342530  23.6075010
  64.3310320  33.2787630  22.7596610  63.6209820  34.2500540  23.6785190
  65.7540800  32.9657770  21.6183830  65.6929200  32.0218990  21.4714850
  66.5332830  33.0737860  22.1637290  50.0593550  49.1050130  20.5807780
  49.8915590  48.4720810  21.2789670  49.1928060  49.3109530  20.2301970
  57.2235380  35.0506180  21.0741950  56.4109890  34.6763070  20.7337830
  57.7277020  34.2951260  21.3763140  61.7260360  31.7148630  22.3125020
  62.3289730  32.2868840  22.7873540  60.9853350  32.2788070  22.0898920
  64.8694960  32.1170190  17.5865300  65.0645590  33.0153640  17.8532730
  64.0824830  31.8857270  18.0798250  51.6656250  47.7983360  18.0257920
  51.1403870  48.1791390  17.3219880  51.5900830  48.4234130  18.7467630
  53.0546720  33.4630960  16.6241610  53.5839480  32.6760760  16.4949560
  53.6875040  34.1422150  16.8577140  55.2484560  33.2006100  19.6787000
  54.6187300  32.4993410  19.8457130  54.7089700  33.9610230  19.4620160
  58.1876510  49.8145330  32.3497610  59.1143820  49.5789600  32.3933570
  58.1726940  50.6417330  31.8683640  66.4221570  49.3570900  19.3471860
  66.5973760  48.6708640  18.7032780  65.7243140  49.8817950  18.9548530
  55.3740120  32.4790080  32.1139490  55.0924390  32.9823680  31.3500310
  55.7559820  31.6811830  31.7481620  54.2649220  49.7465740  16.9007170
  54.9968040  49.4625020  16.3531060  54.5242890  49.5079020  17.7906550
  53.4264010  45.8630470  16.9053500  52.7972890  46.3315570  17.4539330
  53.5411840  45.0179690  17.3399690  61.9755580  31.8943660  32.6919960
  61.8621030  32.2138270  33.5871480  62.7925320  32.2956170  32.3957240
  64.7554070  49.0415190  32.1738650  65.5479390  48.5464420  31.9664610
  65.0487220  49.7205330  32.7814260  60.8813730  39.9136130   3.0554700
  60.8007780  38.9990740   2.7846410  60.4678150  40.4103200   2.3494410
  59.0131770  41.6915150   4.9363970  58.2373870  41.2115590   5.2262540
  59.6644700  41.0120800   4.7620130  53.0297600  42.0034960   5.8139730
  52.1982480  41.7483670   6.2136240  53.6378580  42.0745730   6.5497650
  63.0339200  46.0975340   3.7163100  62.5720730  45.3262580   4.0450270
  63.8464750  46.1241410   4.2215550  53.0098860  46.0375050   6.0097750
  53.3126900  45.1472790   5.8307970  53.7542450  46.5945270   5.7820000
  49.4022560  39.5642500   5.4821820  49.9738670  38.7964700   5.4825460
  49.4024100  39.8631260   4.5728430  59.2602510  48.3833350   3.3367090
  58.6413950  48.8390850   2.7661530  60.1154290  48.5384810   2.9356790
  58.4540760  44.3672340   4.9434130  58.3849040  43.4262280   4.7823260
  59.2160620  44.4573750   5.5156700  50.6447430  34.9726860   7.2690750
  50.4650270  34.0752610   7.5493510  50.2427510  35.5198730   7.9437700
  59.4845930  37.1742720   5.1703060  59.8610750  36.3014600   5.0576730
  59.3865440  37.5101420   4.2793500  63.2670050  34.6693160   2.1031400
  64.0879670  34.1789730   2.1456880  63.3004130  35.2590820   2.8563240
  51.2634100  37.4687360   5.8773090  51.9444210  37.7325730   6.4960490
  50.9482150  36.6288230   6.2111100  55.4558670  38.5154720   4.9645680
  55.9636890  39.0135690   5.6050700  55.9871910  37.7389920   4.7885040
  67.5569600  36.6859910   8.6675030  66.8521770  37.0741620   8.1490140
  67.8227520  37.3810200   9.2695960  53.7394770  33.1553280   9.2309100
  53.7413210  33.6725670   8.4255000  52.9099080  32.6783460   9.2079030
  54.9897620  42.7948460   7.4082600  54.6567000  43.4217380   8.0503670
  55.1664300  43.3210340   6.6284270  63.5031530  36.6093540   4.8758940
  62.7987100  36.8978430   5.4562050  63.8643690  37.4193650   4.5158500
  53.4210100  34.8663240   7.2379550  53.7626910  35.7105290   6.9433420
  52.4825910  35.0146980   7.3544890  54.2016720  44.7629260   9.2231780
  54.8190720  45.4380340   8.9416230  53.3409840  45.1717240   9.1319280
  65.1194310  46.2268670   7.1386420  64.4357830  46.8967780   7.1303090
  65.6588600  46.4249320   6.3731280  66.5718450  36.0548330   5.2668150
  65.6243360  36.0887310   5.3983580  66.8968440  36.8687280   5.6517510
  57.1037990  32.3545510   3.5624140  57.4112970  31.7992400   2.8459640
  56.1738690  32.4889970   3.3797130  62.6553050  48.0712800   5.8531600
  62.6680210  47.6675090   4.9853860  62.1028270  48.8460090   5.7493030
  62.0538490  42.9742640   7.1814210  62.4707280  42.7602750   6.3467670
  62.7778310  43.2315430   7.7522830  62.9642600  38.1599180   8.2185320
  62.5513780  38.9852890   8.4725310  62.2318550  37.5744220   8.0261680
  55.5657090  44.6326640   5.2443200  55.2685380  44.0272110   4.5650980
  56.5156910  44.6703950   5.1332560  53.8104010  37.7202290   6.8603030
  54.3618600  37.8297630   6.0856280  54.3247520  38.0939890   7.5758260
  63.6542700  48.2058510   8.9066300  63.1773260  49.0130700   8.7138910
  62.9704490  47.5536840   9.0592510  54.6575520  44.3708330  11.8951000
  53.7604050  44.5948300  12.1424400  54.6828390  44.4943270  10.9462400
  53.4846740  41.2421650  10.4708370  53.3454510  42.1144450  10.8395770
  52.6028100  40.8994460  10.3256310  55.2827090  47.1843350  12.6793520
  55.2542520  47.5886300  11.8121950  55.1192060  46.2553710  12.5165120
  67.2341910  47.9670450  13.9757690  67.7101630  48.4453340  14.6546770
  67.8549070  47.8987940  13.2503190  49.4365390  43.0119200   6.3879280
  49.5145810  43.1467970   5.4435000  50.0507070  42.3035090   6.5807400
  50.6813020  44.7119390   2.7985460  50.2741100  44.8533980   1.9439060
  51.5726030  44.4279550   2.5956670  66.6375160  45.1583300  11.1357700
  66.7638220  44.9195180  10.2174880  66.6796540  44.3267840  11.6079780
  60.4991900  48.8611300   9.7052510  61.0136570  48.7719310  10.5074940
  59.6560980  49.2071000   9.9980420  61.7422360  48.2816910   1.7683000
  62.1979310  47.5006290   2.0821620  62.0814880  48.9923730   2.3124180
  66.4899170  37.2115760  12.1007440  65.8743440  37.7195430  11.5722900
  66.1695590  36.3114090  12.0433380  49.4924910  44.0533370   8.9273740
  49.6555950  43.5838730   8.1093110  49.9577360  43.5456930   9.5922580
  54.2643680  33.1839130   3.9634310  53.8211830  33.9648670   3.6318830
  54.8228670  33.5069020   4.6705250  58.5513490  36.0507650   9.5669630
  58.0892860  36.2590670  10.3789570  58.1491600  35.2367000   9.2640300
  63.5518000  37.2716600  10.6966290  62.7011590  36.9722350  11.0175360
  63.3919790  37.5158610   9.7850110  60.6467710  38.7718350  12.7965080
  60.9721120  37.9382100  12.4567310  61.4348040  39.2946870  12.9443410
  56.3019580  33.7286460   5.8223910  56.5991910  34.6349290   5.7415930
  56.8505140  33.2405240   5.2083480  56.4957110  39.2058280  12.3575830
  56.4000710  38.2653010  12.2076230  57.3389090  39.4273350  11.9623900
  51.6267650  35.6171950  10.5109610  51.2331040  36.4647160  10.7182390
  50.9386050  34.9798320  10.7018250  58.2012700  35.7006920  13.5806350
  57.5111020  35.5079120  14.2152440  58.9445000  35.9841560  14.1130650
  48.9284700  33.5400410   4.5439690  48.6397750  34.1103270   5.2564670
  49.6730460  33.0604860   4.9070920  60.4775670  39.5405360   6.4160270
  59.7456790  40.0492170   6.7650370  60.0800010  38.7235340   6.1149050
  56.9153060  36.2159560   4.8212760  56.9189120  35.7749510   3.9717300
  57.8104180  36.5376890   4.9284580  52.7655440  36.0986050   3.7806970
  52.4255490  36.5761280   4.5374020  52.0032760  35.6451170   3.4208070
  60.9401580  34.9939040   5.8283210  60.9574320  35.4447690   6.6725060
  60.6917160  34.0944680   6.0416650  64.3672330  32.4071220  11.6669590
  64.6918100  31.6760880  12.1927570  64.4028840  32.0884860  10.7650580
  51.0663890  43.4284800  11.0869550  50.6818680  42.7878470  11.6852510
  51.3776080  44.1320920  11.6564280  57.2161030  40.2761340   6.5678170
  57.5831160  39.8019910   7.3139510  57.0266090  41.1502910   6.9086510
  50.0801520  35.0205030   2.6971640  49.7948440  34.6560700   3.5350260
  50.0180380  34.2885490   2.0834780  55.0060400  39.3169980   8.8862380
  54.7017470  40.1961960   9.1112740  55.9606860  39.3769770   8.9219820
  64.2930170  42.5196330   5.2755620  65.0129290  43.0151620   4.8851730
  64.0911990  41.8414220   4.6309490  59.6748970  42.5905390  11.1624620
  59.6086280  41.6701060  10.9082210  59.0454110  42.6880830  11.8769260
  53.5779590  43.1911350   3.1208040  54.0958260  42.3879610   3.0664930
  53.1263610  43.1290490   3.9624870  51.0624130  40.1572720  10.0333740
  50.7039070  40.8226570  10.6207080  50.7678690  39.3256270  10.4046360
  54.2637250  40.6156960  12.9173290  53.9637390  40.7614140  12.0201110
  55.0348490  40.0562250  12.8246680  65.8176910  42.0533300  10.2597000
  65.0925100  42.6462080  10.0626390  66.3452370  42.0456840   9.4610370
  61.3476500  43.7793470   3.7580850  61.7000320  43.1821600   3.0982220
  60.4638830  43.4537700   3.9289100  59.0399600  47.0543530   8.0068920
  59.6841820  47.2602910   8.6842340  59.4029040  46.2931930   7.5539770
  60.3131680  45.0575880   6.7246370  60.9553910  44.3569040   6.8378540
  60.8381030  45.8374320   6.5443260  62.0869300  45.8570780   9.9282430
  62.4225540  46.4437470  10.6060350  61.1669640  45.7263490  10.1580220
  49.6372700  33.6465960  10.7105840  48.9231220  33.8462880  11.3158450
  50.0567740  32.8705530  11.0820640  49.9245290  47.6346220  11.6972370
  50.0336410  46.6940960  11.5567760  49.2725850  47.9000970  11.0486100
  57.9157880  45.9062110  13.0970490  57.5954750  45.1871350  13.6416180
  57.2416240  46.5817180  13.1706550  61.1311480  36.1388270   8.4607290
  61.4992300  35.3183480   8.7886860  60.2709680  36.1990160   8.8762940
  58.0913470  38.7927860   8.6845260  58.5898720  39.2673680   9.3497110
  58.2336420  37.8691380   8.8915290  65.2980330  35.0095820   9.5273650
  64.7953930  35.7501220   9.8667460  66.1136990  35.3979820   9.2110440
  63.5902340  40.2529000   2.9735010  62.6492480  40.2679230   3.1482700
  63.9046410  39.4664960   3.4195310  65.5927920  47.4237850   4.6489270
  65.7175340  48.2469020   5.1213080  66.4593480  47.2128580   4.3013420
  53.0645450  49.5169060   4.3206400  53.8007930  48.9684520   4.5914970
  53.4486370  50.3825070   4.1812390  52.0703730  48.7015130  13.5091980
  52.8716460  49.0227180  13.9227380  51.5555550  48.3410710  14.2311890
  60.9068360  44.8095000  13.4567390  60.3006520  44.8326600  12.7163140
  60.6022470  44.0778040  13.9934640  62.3368730  48.5375290  12.0676800
  63.2890480  48.4533310  12.0177040  62.1896950  49.2017000  12.7410590
  56.8439480  42.5959580  11.9863550  56.0785150  43.1644580  11.9018220
  57.0255440  42.3035790  11.0931780  63.9862830  44.3264910  12.5438570
  64.7272300  44.6640670  12.0406030  63.2235510  44.4956970  11.9908340
  53.7630430  37.9110280  11.3152590  53.2326890  37.4201230  10.6875930
  54.4318500  38.3394480  10.7810520  62.6608490  42.3779740  11.0793780
  63.0749510  42.5324820  11.9284200  61.7259490  42.5034960  11.2419560
  63.1330660  39.7175900  13.0832930  63.7151430  38.9628220  12.9953410
  63.3092430  40.2483340  12.3064410  54.2502730  34.8772650  11.3949880
  54.1559600  34.2593400  10.6700750  53.6700120  35.6038940  11.1679790
  57.0164170  33.4345890   8.4277270  56.5681470  33.4570150   7.5822820
  56.3829370  33.0364910   9.0247570  57.4223720  42.3300220   9.0489710
  57.8411830  43.1732950   8.8765950  56.5032350  42.4672260   8.8196490
  59.7587620  40.0616400  10.4327550  59.8783830  39.4657540  11.1722390
  60.6181620  40.0986090  10.0128850  62.0975520  40.6153590   9.0090060
  61.5710740  41.1396210   8.4055200  62.4406860  41.2480980   9.6399790
  55.2731140  48.6353230  10.1647440  54.7352230  49.3599290   9.8456140
  55.5265100  48.1583570   9.3744780  56.5256390  36.6037750  11.6903370
  57.1156080  36.2953600  12.3781190  55.7076630  36.1317500  11.8463270
  61.3449820  36.2203560  11.9236390  60.6565340  35.5585100  11.8586380
  62.0655840  35.7741830  12.3684850  58.1293350  49.8704440  10.4234090
  58.0552050  50.7739580  10.7306460  57.2272190  49.5516340  10.3956160
  49.5320640  47.1979030   3.7267710  49.8623650  46.3300090   3.4946350
  49.9611640  47.4037550   4.5572670  50.0210850  48.0649620   6.4649340
  49.5841840  48.2450420   7.2973490  50.5888530  48.8224240   6.3231060
  65.6573030  47.5666620  10.7526650  65.0575020  47.6259180  10.0090570
  65.7866930  46.6271600  10.8823500  49.8535280  40.5769850   2.8238220
  49.1984120  40.3081490   2.1797920  50.6913230  40.4674330   2.3740200
  67.3590910  42.9082020   3.4372490  67.7299740  42.1249340   3.0308460
  67.9992840  43.5971120   3.2589790  64.3424670  44.2918600   8.8502810
  63.5284510  44.7215760   9.1128600  64.7498870  44.9037010   8.2371860
  50.8911210  40.9622420   7.3641560  51.2584250  40.8749820   8.2437580
  50.3222030  40.1988970   7.2648420  65.6915070  39.4306800  10.3772030
  65.4601160  39.2019550   9.4769980  65.9519620  40.3506350  10.3316920
  50.4427210  37.8731510  11.2699980  49.5483260  37.8398270  11.6093690
  50.9824760  38.0718300  12.0351230  64.1303140  34.6563230  13.1551730
  65.0073320  34.6646630  13.5385730  64.1423980  33.9194070  12.5444080
  65.5766410  38.5092770   4.0439750  66.1003890  38.0155420   3.4129920
  66.1625830  38.6443130   4.7887320  65.7556130  38.5932640   7.5659300
  64.8058840  38.5596180   7.6804290  65.9369140  39.5032750   7.3309070
  50.9466920  32.1479840   5.6183200  51.5943110  31.5977220   5.1778360
  51.3668760  32.4022990   6.4399010  66.4953540  36.4027070   2.5169840
  66.3852820  36.2483110   3.4552110  67.2561130  35.8748010   2.2745250
  64.8419260  32.3421200   8.9752840  65.4791480  32.9555340   9.3412030
  64.9894150  32.3781860   8.0302070  64.4000720  49.0437200   2.3771080
  64.9959790  48.7221770   1.7005500  64.6578870  48.5709020   3.1684350
  50.6998920  32.3035510   8.3608520  50.3513740  32.7599330   9.1266700
  50.3686620  31.4092640   8.4430950  52.3063290  45.4755110  12.5261710
  52.2632920  45.1048020  13.4076170  52.4374300  46.4132680  12.6663530
  56.0069320  47.0314700   8.1271430  55.7660680  47.2989260   7.2401950
  56.9471960  47.2020430   8.1822290  58.2123740  33.4947390  11.8827940
  58.1512630  34.0869220  12.6323350  59.1524120  33.3873350  11.7378200
  60.8498300  33.1517450  11.5220230  61.4638710  33.4696740  10.8601310
  61.3947860  32.6666040  12.1416090  67.2673480  49.0509080   8.9282070
  66.7731760  49.4477950   8.2109200  66.6586770  48.4258290   9.3219350
  51.3719560  31.8311710  11.6359290  51.9202550  31.6499760  10.8725400
  51.4374870  31.0405820  12.1715600  52.1451320  48.4217360   9.6459490
  51.5511640  48.2902060  10.3849530  52.1375160  47.5855500   9.1801590
  61.5906340  31.7149590   7.8489520  60.7166180  32.0484700   7.6462450
  61.4817090  31.2422770   8.6741390  62.4978320  33.9220460   9.2331240
  62.1691680  33.1072220   8.8532970  63.4460620  33.8790270   9.1096930
  64.9512930  49.6932500   6.2068810  64.4915900  50.4448310   5.8326830
  64.3225390  48.9738970   6.1483610  51.7763550  45.7875740   8.5967530
  51.0497610  45.1681030   8.5293480  51.8372700  46.1816350   7.7265610
  55.3808650  48.0020740   5.3816940  55.8973670  47.3908100   4.8565200
  56.0306030  48.5049520   5.8727950  58.1204150  48.8929230   6.2085920
  58.4081960  48.6383530   5.3318930  58.6327370  48.3406590   6.7991490
  59.3381160  32.6319430   6.7882430  58.5552950  33.1064930   7.0679190
  59.0444090  31.7274260   6.6795610  63.8902230  33.3342530   4.8331520
  64.3310320  33.2787630   3.9853120  63.6209820  34.2500540   4.9041700
  65.7540800  32.9657770   2.8440340  65.6929200  32.0218990   2.6971360
  66.5332830  33.0737860   3.3893800  57.2235380  35.0506180   2.2998460
  56.4109890  34.6763070   1.9594340  57.7277020  34.2951260   2.6019650
  61.7260360  31.7148630   3.5381530  62.3289730  32.2868840   4.0130050
  60.9853350  32.2788070   3.3155430  58.1876510  49.8145330  13.5754120
  59.1143820  49.5789600  13.6190080  58.1726940  50.6417330  13.0940150
  55.3740120  32.4790080  13.3396000  55.0924390  32.9823680  12.5756820
  55.7559820  31.6811830  12.9738130  61.9755580  31.8943660  13.9176470
  61.8621030  32.2138270  14.8127990  62.7925320  32.2956170  13.6213750
  64.7554070  49.0415190  13.3995160  65.5479390  48.5464420  13.1921120
  65.0487220  49.7205330  14.0070770  60.8813730  21.1392640  96.9272150
  60.8007780  20.2247250  96.6563860  60.4678150  21.6359710  96.2211860
  59.0131770  22.9171660  98.8081420  58.2373870  22.4372100  99.0979990
  59.6644700  22.2377310  98.6337580  53.0297600  23.2291470  99.6857180
  52.1982480  22.9740180 100.0853690  53.6378580  23.3002240 100.4215100
  63.0339200  27.3231850  97.5880550  62.5720730  26.5519090  97.9167720
  63.8464750  27.3497920  98.0933000  53.0098860  27.2631560  99.8815200
  53.3126900  26.3729300  99.7025420  53.7542450  27.8201780  99.6537450
  51.4389550  18.1893360  93.4699570  50.5506250  18.5309330  93.3679450
  51.7230740  17.9893680  92.5780400  49.4022560  20.7899010  99.3539270
  49.9738670  20.0221210  99.3542910  49.4024100  21.0887770  98.4445880
  59.2602510  29.6089860  97.2084540  58.6413950  30.0647360  96.6378980
  60.1154290  29.7641320  96.8074240  58.4540760  25.5928850  98.8151580
  58.3849040  24.6518790  98.6540710  59.2160620  25.6830260  99.3874150
  59.4845930  18.3999230  99.0420510  59.8610750  17.5271110  98.9294180
  59.3865440  18.7357930  98.1510950  53.6150940  16.7724860  94.5037950
  53.7217690  17.6728590  94.8106710  52.7043300  16.7242830  94.2132600
  63.2670050  15.8949670  95.9748850  64.0879670  15.4046240  96.0174330
  63.3004130  16.4847330  96.7280690  51.2634100  18.6943870  99.7490540
  51.9444210  18.9582240 100.3677940  50.9482150  17.8544740 100.0828550
  55.4558670  19.7411230  98.8363130  55.9636890  20.2392200  99.4768150
  55.9871910  18.9646430  98.6602490  60.1265860  24.4929100  94.6016450
  59.5083130  24.9578550  94.0379170  60.6389110  25.1856580  95.0185960
  63.5031530  17.8350050  98.7476390  62.7987100  18.1234940  99.3279500
  63.8643690  18.6450160  98.3875950  53.4210100  16.0919750 101.1097000
  53.7626910  16.9361800 100.8150870  52.4825910  16.2403490 101.2262340
  49.4949060  25.1785630  91.9756080  49.1177040  25.6672730  91.2440980
  49.7522130  25.8510910  92.6062610  65.1194310  27.4525180 101.0103870
  64.4357830  28.1224290 101.0020540  65.6588600  27.6505830 100.2448730
  66.5718450  17.2804840  99.1385600  65.6243360  17.3143820  99.2701030
  66.8968440  18.0943790  99.5234960  57.1037990  13.5802020  97.4341590
  57.4112970  13.0248910  96.7177090  56.1738690  13.7146480  97.2514580
  62.6553050  29.2969310  99.7249050  62.6680210  28.8931600  98.8571310
  62.1028270  30.0716600  99.6210480  63.9498470  26.0185530  94.8139220
  63.8394800  25.0759860  94.9388640  63.9466720  26.3801170  95.7001980
  62.0538490  24.1999150 101.0531660  62.4707280  23.9859260 100.2185120
  62.7778310  24.4571940 101.6240280  59.4918750  21.6450850  94.1701710
  58.5648030  21.5788230  94.3990180  59.6443570  22.5830980  94.0556950
  59.4787830  17.9167850  91.1668870  58.5391500  18.0781810  91.2521330
  59.7971090  18.6353530  90.6204860  66.0000590  22.5986370 101.1447900
  65.1719220  22.6679460 100.6698030  66.5951070  23.1840680 100.6763730
  63.5216040  23.2071150  94.6736960  62.9028460  22.8690700  94.0263260
  63.5040490  22.5630910  95.3816150  55.0975390  22.1715590  96.9521440
  54.6932390  21.4592840  96.4567340  55.1838510  21.8268830  97.8409480
  55.5657090  25.8583150  99.1160650  55.2685380  25.2528620  98.4368430
  56.5156910  25.8960460  99.0050010  53.8104010  18.9458800 100.7320480
  54.3618600  19.0554140  99.9573730  54.3247520  19.3196400 101.4475710
  61.6980740  22.4457960  91.6809710  62.1374020  21.6080390  91.5347530
  62.4109160  23.0787360  91.7673850  59.8076120  27.3854030  95.6490950
  60.2472030  28.1278360  95.2346340  59.7463010  27.6280600  96.5729910
  65.2797880  13.7000770  89.9950750  64.9670540  13.7927600  90.8949820
  66.0410350  14.2781800  89.9448180  51.7980020  21.0660570  94.4528090
  51.6777620  21.7922660  93.8409360  51.4880910  20.2963480  93.9756000
  49.4365390  24.2375710 100.2596730  49.5145810  24.3724480  99.3152450
  50.0507070  23.5291600 100.4524850  50.6813020  25.9375900  96.6702910
  50.2741100  26.0790490  95.8156510  51.5726030  25.6536060  96.4674120
  62.4746300  30.3723150  93.0053960  62.3147440  30.0826090  93.9035790
  62.3093010  29.5963280  92.4699190  54.9534680  30.1521680  94.7825580
  54.7777160  29.2357220  94.5693380  54.0990420  30.5108970  95.0223380
  62.1772430  27.8810710  91.5651960  61.4837590  27.8788000  90.9054240
  62.9195290  27.4570030  91.1346130  61.7422360  29.5073420  95.6400450
  62.1979310  28.7262800  95.9539070  62.0814880  30.2180240  96.1841630
  54.2643680  14.4095640  97.8351760  53.8211830  15.1905180  97.5036280
  54.8228670  14.7325530  98.5422700  57.3802500  14.0306340  92.7157590
  56.7556680  14.0266210  93.4410900  57.2932620  13.1637300  92.3193560
  56.3019580  14.9542970  99.6941360  56.5991910  15.8605800  99.6133380
  56.8505140  14.4661750  99.0800930  54.0557900  19.5329210  95.5633010
  53.8298820  19.3166380  96.4679630  53.2750430  19.9657670  95.2178980
  61.2855660  19.5392580  94.1623660  60.6864550  20.2628380  93.9787280
  61.8335270  19.4769360  93.3800110  59.8920530  18.1756120  96.1926940
  60.2850100  18.4928320  95.3795630  60.2537380  17.2968000  96.3071460
  48.9284700  14.7656920  98.4157140  48.6397750  15.3359780  99.1282120
  49.6730460  14.2861370  98.7788370  49.1154930  18.7077040  89.6259860
  49.0329600  19.6507800  89.7674850  48.7637990  18.5651950  88.7472210
  60.4775670  20.7661870 100.2877720  59.7456790  21.2748680 100.6367820
  60.0800010  19.9491850  99.9866500  56.9153060  17.4416070  98.6930210
  56.9189120  17.0006020  97.8434750  57.8104180  17.7633400  98.8002030
  52.7655440  17.3242560  97.6524420  52.4255490  17.8017790  98.4091470
  52.0032760  16.8707680  97.2925520  56.9773210  18.4428150  91.6836970
  57.0986030  18.4014630  92.6322790  56.5921720  19.3052300  91.5283700
  60.9401580  16.2195550  99.7000660  60.9574320  16.6704200 100.5442510
  60.6917160  15.3201190  99.9134100  55.9894710  20.7529290  91.0820270
  55.4211610  20.3047540  90.4556180  56.6983710  21.1122070  90.5485420
  57.2161030  21.5017850 100.4395620  57.5831160  21.0276420 101.1856960
  57.0266090  22.3759420 100.7803960  50.0801520  16.2461540  96.5689090
  49.7948440  15.8817210  97.4067710  50.0180380  15.5142000  95.9552230
  53.5342190  24.7487480  93.3546680  52.7604450  24.2085100  93.1945400
  54.2636820  24.2294090  93.0164440  64.2930170  23.7452840  99.1473070
  65.0129290  24.2408130  98.7569180  64.0911990  23.0670730  98.5026940
  59.7540110  15.1390800  93.2902460  58.9404720  14.6403970  93.2147770
  59.5602060  15.9789050  92.8738810  62.4688500  19.5110450  91.5864620
  63.3568120  19.8227680  91.4115960  62.4393590  18.6382700  91.1945200
  53.5779590  24.4167860  96.9925490  54.0958260  23.6136120  96.9382380
  53.1263610  24.3547000  97.8342320  58.4649090  25.6834140  92.2652790
  58.8064790  26.4276370  91.7696110  57.6361800  25.9965260  92.6277620
  64.7402770  20.8222290  91.0544480  64.6566490  21.2536510  90.2040920
  65.4596960  21.2820640  91.4871300  65.7690020  27.6764550  93.7826610
  65.1266180  27.0220170  94.0570330  65.3820680  28.0819640  93.0067280
  61.3476500  25.0049980  97.6298300  61.7000320  24.4078110  96.9699670
  60.4638830  24.6794210  97.8006550  57.4339780  25.7647670  95.0368710
  58.1210910  26.3116880  95.4176300  56.6472200  26.3088400  95.0718320
  49.5732180  21.3820490  90.5285790  50.4427030  21.6645290  90.8121710
  49.0822500  22.1956360  90.4134600  56.7366990  22.7693700  94.6494070
  57.1929770  23.5798950  94.8754260  56.3855200  22.4516840  95.4812560
  52.6378770  13.1131350  95.1216590  52.5093400  13.1049250  96.0701510
  51.8140790  13.4514440  94.7707600  60.3131680  26.2832390 100.5963820
  60.9553910  25.5825550 100.7095990  60.8381030  27.0630830 100.4160710
  64.1587400  26.5681010  90.3202960  63.9324980  25.8511450  90.9127600
  63.7683600  26.3193450  89.4824710  49.9403430  30.5947870  91.0947420
  50.3001070  31.1937210  90.4404690  49.7995770  31.1407760  91.8682450
  63.7403650  24.4852950  91.9817120  63.4525350  24.9465640  92.7695000
  64.5355820  24.0250720  92.2501340  55.9572050  27.9779070  91.9121090
  55.9482150  28.7108760  91.2965600  55.0370410  27.7310650  92.0048050
  51.5578690  23.1993960  92.6567850  50.9506640  23.9392860  92.6663150
  52.0328040  23.2893320  91.8306050  64.4973510  16.3201720  93.1412300
  63.8686670  16.4247390  92.4270530  64.0025430  16.5398500  93.9306180
  58.9431650  28.0407310  90.5746280  59.0443630  27.8371300  89.6448260
  58.0433390  27.7865590  90.7794060  56.4657540  18.5987670  94.5570180
  55.7573690  19.0674010  94.9983790  56.7502020  17.9409680  95.1915370
  60.4972970  15.3238330  95.9965970  60.3740750  15.3424460  95.0475480
  61.4457530  15.3717270  96.1164370  57.5849760  30.5593630  95.2693950
  57.8391260  30.5215020  94.3473320  56.6362240  30.4326960  95.2622200
  54.6692560  16.9072750  91.9320890  55.5183090  17.3442900  91.8661080
  54.3023830  17.2193010  92.7592950  63.5902340  21.4785510  96.8452460
  62.6492480  21.4935740  97.0200150  63.9046410  20.6921470  97.2912760
  53.5683980  23.1605110  90.4056420  54.3347250  23.0486470  90.9681850
  53.6458670  22.4643080  89.7533190  52.2630740  20.5930180  91.0889310
  52.3434330  19.6457690  91.2006710  53.1550490  20.9237060  91.1949970
  65.5927920  28.6494360  98.5206720  65.7175340  29.4725530  98.9930530
  66.4593480  28.4385090  98.1730870  53.0645450  30.7425570  98.1923850
  53.8007930  30.1941030  98.4632420  53.4486370  31.6081580  98.0529840
  49.9490930  26.8099140  94.0665360  49.0230710  27.0520280  94.0570770
  50.4147360  27.6373400  93.9450110  56.1747760  29.9155880  90.0149420
  56.9676370  30.2044710  89.5631210  55.6552110  29.4848050  89.3361900
  65.2277930  29.1426010  91.4386160  64.9419440  28.7291150  90.6240340
  65.0297480  30.0713720  91.3186680  56.6925160  25.1359290  89.8791770
  56.5875800  24.5211640  90.6053150  56.5249380  24.6125180  89.0954780
  59.9327890  24.1979320  90.4833760  59.3837990  24.6448620  91.1276500
  60.5547150  23.6928570  91.0071430  55.6003010  23.1570240  92.3799060
  56.0219430  22.9910110  93.2230450  55.7253850  22.3470470  91.8854200
  58.1130650  22.1807850  89.6276160  58.6336310  21.4656870  89.2617310
  58.7599050  22.8193720  89.9276670  54.4961910  19.2303470  89.3257220
  54.2950970  18.3670830  89.6870560  54.3253960  19.1436830  88.3878820
  61.9750220  14.0411700  91.8544100  62.2552510  13.1979600  92.2103520
  61.2015950  14.2734810  92.3682850  53.2944710  16.3304090  89.3135100
  53.5970610  16.3371520  88.4054250  54.0339300  15.9801950  89.8102760
  56.5129640  15.2738710  90.2991300  56.1651640  14.5962700  89.7193750
  56.7142410  14.8128220  91.1134690  58.6778680  30.2619460  91.9177900
  59.5729470  30.6004430  91.9396660  58.7096310  29.5398870  91.2902180
  52.3174840  25.6346510  90.1464900  52.7549710  26.1776180  90.8022480
  52.8022570  24.8093460  90.1561240  49.5320640  28.4235540  97.5985160
  49.8623650  27.5556600  97.3663800  49.9611640  28.6294060  98.4290120
  54.1282560  26.7544550  95.2587130  53.8278100  26.6309520  96.1591040
  54.0220050  25.8953140  94.8502860  50.0210850  29.2906130 100.3366790
  49.5841840  29.4706930 101.1690940  50.5888530  30.0480750 100.1948510
  66.8974480  26.5340950  89.9613810  66.0667440  26.6017600  90.4321040
  67.0746310  27.4245070  89.6580670  66.3530940  23.2788430  92.4648010
  67.1149850  23.8485080  92.5707700  66.3685310  22.7115630  93.2356320
  49.8535280  21.8026360  96.6955670  49.1984120  21.5338000  96.0515370
  50.6913230  21.6930840  96.2457650  67.3590910  24.1338530  97.3089940
  67.7299740  23.3505850  96.9025910  67.9992840  24.8227630  97.1307240
  66.4050110  23.5722800  89.6220530  66.6798950  24.4801680  89.4939750
  66.2160850  23.5085330  90.5582520  62.8025720  16.5967650  90.9174160
  63.2210600  16.4098630  90.0770820  62.4961780  15.7446700  91.2277090
  66.3015450  21.5091790  94.6149960  65.9259050  20.7419720  94.1831250
  65.5718570  21.8914490  95.1024890  49.0673360  19.0125290  92.6381000
  48.1637440  19.2755490  92.4632660  49.5513980  19.2836460  91.8580960
  65.5766410  19.7349280  97.9157200  66.1003890  19.2411930  97.2847370
  66.1625830  19.8699640  98.6604770  65.7556130  19.8189150 101.4376750
  64.8058840  19.7852690 101.5521740  65.9369140  20.7289260 101.2026520
  51.6100570  18.0690830  90.5475380  52.3192270  17.6474050  90.0622660
  50.8940510  18.1366060  89.9158730  51.2574730  14.1230160  89.5878030
  51.9802860  14.6639100  89.9059250  51.5299250  13.8493580  88.7119570
  65.0666380  18.9922630  93.8549610  65.5625500  18.7593500  94.6398490
  64.8682450  18.1534470  93.4387250  50.9466920  13.3736350  99.4900650
  51.5943110  12.8233730  99.0495810  51.3668760  13.6279500 100.3116460
  66.4953540  17.6283580  96.3887290  66.3852820  17.4739620  97.3269560
  67.2561130  17.1004520  96.1462700  67.3843810  15.4591500  89.6293430
  68.3093120  15.3272680  89.4211720  67.3619600  15.5384320  90.5829880
  67.4582300  16.2302160  92.2550140  66.6633800  16.1647280  92.7843050
  67.6625580  17.1652800  92.2435490  64.4000720  30.2693710  96.2488530
  64.9959790  29.9478280  95.5722950  64.6578870  29.7965530  97.0401800
  64.9512930  30.9189010 100.0786260  64.4915900  31.6704820  99.7044280
  64.3225390  30.1995480 100.0201060  55.3808650  29.2277250  99.2534390
  55.8973670  28.6164610  98.7282650  56.0306030  29.7306030  99.7445400
  58.1204150  30.1185740 100.0803370  58.4081960  29.8640040  99.2036380
  58.6327370  29.5663100 100.6708940  59.3381160  13.8575940 100.6599880
  58.5552950  14.3321440 100.9396640  59.0444090  12.9530770 100.5513060
  63.8902230  14.5599040  98.7048970  64.3310320  14.5044140  97.8570570
  63.6209820  15.4757050  98.7759150  65.7540800  14.1914280  96.7157790
  65.6929200  13.2475500  96.5688810  66.5332830  14.2994370  97.2611250
  50.0593550  30.3306640  95.6781740  49.8915590  29.6977320  96.3763630
  49.1928060  30.5366040  95.3275930  50.6821570  14.1623420  93.1813600
  51.4400930  14.2752300  92.6077630  50.2198740  14.9992620  93.1357030
  57.2235380  16.2762690  96.1715910  56.4109890  15.9019580  95.8311790
  57.7277020  15.5207770  96.4737100  61.7260360  12.9405140  97.4098980
  62.3289730  13.5125350  97.8847500  60.9853350  13.5044580  97.1872880
  64.8694960  13.3426700  92.6839260  65.0645590  14.2410150  92.9506690
  64.0824830  13.1113780  93.1772210  51.6656250  29.0239870  93.1231880
  51.1403870  29.4047900  92.4193840  51.5900830  29.6490640  93.8441590
  53.0546720  14.6887470  91.7215570  53.5839480  13.9017270  91.5923520
  53.6875040  15.3678660  91.9551100  55.2484560  14.4262610  94.7760960
  54.6187300  13.7249920  94.9431090  54.7089700  15.1866740  94.5594120
  66.4221570  30.5827410  94.4445820  66.5973760  29.8965150  93.8006740
  65.7243140  31.1074460  94.0522490  54.2649220  30.9722250  91.9981130
  54.9968040  30.6881530  91.4505020  54.5242890  30.7335530  92.8880510
  53.4264010  27.0886980  92.0027460  52.7972890  27.5572080  92.5513290
  53.5411840  26.2436200  92.4373650  60.8813730  21.1392640  78.1528660
  60.8007780  20.2247250  77.8820370  60.4678150  21.6359710  77.4468370
  59.0131770  22.9171660  80.0337930  58.2373870  22.4372100  80.3236500
  59.6644700  22.2377310  79.8594090  53.0297600  23.2291470  80.9113690
  52.1982480  22.9740180  81.3110200  53.6378580  23.3002240  81.6471610
  63.0339200  27.3231850  78.8137060  62.5720730  26.5519090  79.1424230
  63.8464750  27.3497920  79.3189510  51.4389550  18.1893360  74.6956080
  50.5506250  18.5309330  74.5935960  51.7230740  17.9893680  73.8036910
  49.4022560  20.7899010  80.5795780  49.9738670  20.0221210  80.5799420
  49.4024100  21.0887770  79.6702390  59.2602510  29.6089860  78.4341050
  58.6413950  30.0647360  77.8635490  60.1154290  29.7641320  78.0330750
  58.4540760  25.5928850  80.0408090  58.3849040  24.6518790  79.8797220
  59.2160620  25.6830260  80.6130660  50.6447430  16.1983370  82.3664710
  50.4650270  15.3009120  82.6467470  50.2427510  16.7455240  83.0411660
  59.4845930  18.3999230  80.2677020  59.8610750  17.5271110  80.1550690
  59.3865440  18.7357930  79.3767460  53.6150940  16.7724860  75.7294460
  53.7217690  17.6728590  76.0363220  52.7043300  16.7242830  75.4389110
  63.2670050  15.8949670  77.2005360  64.0879670  15.4046240  77.2430840
  63.3004130  16.4847330  77.9537200  51.2634100  18.6943870  80.9747050
  51.9444210  18.9582240  81.5934450  50.9482150  17.8544740  81.3085060
  55.4558670  19.7411230  80.0619640  55.9636890  20.2392200  80.7024660
  55.9871910  18.9646430  79.8859000  67.5569600  17.9116420  83.7648990
  66.8521770  18.2998130  83.2464100  67.8227520  18.6066710  84.3669920
  53.7394770  14.3809790  84.3283060  53.7413210  14.8982180  83.5228960
  52.9099080  13.9039970  84.3052990  60.1265860  24.4929100  75.8272960
  59.5083130  24.9578550  75.2635680  60.6389110  25.1856580  76.2442470
  54.9897620  24.0204970  82.5056560  54.6567000  24.6473890  83.1477630
  55.1664300  24.5466850  81.7258230  63.5031530  17.8350050  79.9732900
  62.7987100  18.1234940  80.5536010  63.8643690  18.6450160  79.6132460
  53.4210100  16.0919750  82.3353510  53.7626910  16.9361800  82.0407380
  52.4825910  16.2403490  82.4518850  54.2016720  25.9885770  84.3205740
  54.8190720  26.6636850  84.0390190  53.3409840  26.3973750  84.2293240
  65.1194310  27.4525180  82.2360380  64.4357830  28.1224290  82.2277050
  65.6588600  27.6505830  81.4705240  66.5718450  17.2804840  80.3642110
  65.6243360  17.3143820  80.4957540  66.8968440  18.0943790  80.7491470
  57.1037990  13.5802020  78.6598100  57.4112970  13.0248910  77.9433600
  56.1738690  13.7146480  78.4771090  62.6553050  29.2969310  80.9505560
  62.6680210  28.8931600  80.0827820  62.1028270  30.0716600  80.8466990
  63.9498470  26.0185530  76.0395730  63.8394800  25.0759860  76.1645150
  63.9466720  26.3801170  76.9258490  62.0538490  24.1999150  82.2788170
  62.4707280  23.9859260  81.4441630  62.7778310  24.4571940  82.8496790
  59.4918750  21.6450850  75.3958220  58.5648030  21.5788230  75.6246690
  59.6443570  22.5830980  75.2813460  59.4787830  17.9167850  72.3925380
  58.5391500  18.0781810  72.4777840  59.7971090  18.6353530  71.8461370
  66.0000590  22.5986370  82.3704410  65.1719220  22.6679460  81.8954540
  66.5951070  23.1840680  81.9020240  63.5216040  23.2071150  75.8993470
  62.9028460  22.8690700  75.2519770  63.5040490  22.5630910  76.6072660
  62.9642600  19.3855690  83.3159280  62.5513780  20.2109400  83.5699270
  62.2318550  18.8000730  83.1235640  55.0975390  22.1715590  78.1777950
  54.6932390  21.4592840  77.6823850  55.1838510  21.8268830  79.0665990
  55.5657090  25.8583150  80.3417160  55.2685380  25.2528620  79.6624940
  56.5156910  25.8960460  80.2306520  53.8104010  18.9458800  81.9576990
  54.3618600  19.0554140  81.1830240  54.3247520  19.3196400  82.6732220
  63.6542700  29.4315020  84.0040260  63.1773260  30.2387210  83.8112870
  62.9704490  28.7793350  84.1566470  54.6575520  25.5964840  86.9924960
  53.7604050  25.8204810  87.2398360  54.6828390  25.7199780  86.0436360
  61.6980740  22.4457960  72.9066220  62.1374020  21.6080390  72.7604040
  62.4109160  23.0787360  72.9930360  53.4846740  22.4678160  85.5682330
  53.3454510  23.3400960  85.9369730  52.6028100  22.1250970  85.4230270
  59.8076120  27.3854030  76.8747460  60.2472030  28.1278360  76.4602850
  59.7463010  27.6280600  77.7986420  55.2827090  28.4099860  87.7767480
  55.2542520  28.8142810  86.9095910  55.1192060  27.4810220  87.6139080
  65.2797880  13.7000770  71.2207260  64.9670540  13.7927600  72.1206330
  66.0410350  14.2781800  71.1704690  51.7980020  21.0660570  75.6784600
  51.6777620  21.7922660  75.0665870  51.4880910  20.2963480  75.2012510
  67.2341910  29.1926960  89.0731650  67.7101630  29.6709850  89.7520730
  67.8549070  29.1244450  88.3477150  49.4365390  24.2375710  81.4853240
  49.5145810  24.3724480  80.5408960  50.0507070  23.5291600  81.6781360
  66.6375160  26.3839810  86.2331660  66.7638220  26.1451690  85.3148840
  66.6796540  25.5524350  86.7053740  60.4991900  30.0867810  84.8026470
  61.0136570  29.9975820  85.6048900  59.6560980  30.4327510  85.0954380
  62.4746300  30.3723150  74.2310470  62.3147440  30.0826090  75.1292300
  62.3093010  29.5963280  73.6955700  54.9534680  30.1521680  76.0082090
  54.7777160  29.2357220  75.7949890  54.0990420  30.5108970  76.2479890
  62.1772430  27.8810710  72.7908470  61.4837590  27.8788000  72.1310750
  62.9195290  27.4570030  72.3602640  61.7422360  29.5073420  76.8656960
  62.1979310  28.7262800  77.1795580  62.0814880  30.2180240  77.4098140
  66.4899170  18.4372270  87.1981400  65.8743440  18.9451940  86.6696860
  66.1695590  17.5370600  87.1407340  54.2643680  14.4095640  79.0608270
  53.8211830  15.1905180  78.7292790  54.8228670  14.7325530  79.7679210
  58.5513490  17.2764160  84.6643590  58.0892860  17.4847180  85.4763530
  58.1491600  16.4623510  84.3614260  63.5518000  18.4973110  85.7940250
  62.7011590  18.1978860  86.1149320  63.3919790  18.7415120  84.8824070
  60.6467710  19.9974860  87.8939040  60.9721120  19.1638610  87.5541270
  61.4348040  20.5203380  88.0417370  57.3802500  14.0306340  73.9414100
  56.7556680  14.0266210  74.6667410  57.2932620  13.1637300  73.5450070
  56.3019580  14.9542970  80.9197870  56.5991910  15.8605800  80.8389890
  56.8505140  14.4661750  80.3057440  54.0557900  19.5329210  76.7889520
  53.8298820  19.3166380  77.6936140  53.2750430  19.9657670  76.4435490
  61.2855660  19.5392580  75.3880170  60.6864550  20.2628380  75.2043790
  61.8335270  19.4769360  74.6056620  56.4957110  20.4314790  87.4549790
  56.4000710  19.4909520  87.3050190  57.3389090  20.6529860  87.0597860
  59.8920530  18.1756120  77.4183450  60.2850100  18.4928320  76.6052140
  60.2537380  17.2968000  77.5327970  51.6267650  16.8428460  85.6083570
  51.2331040  17.6903670  85.8156350  50.9386050  16.2054830  85.7992210
  58.2012700  16.9263430  88.6780310  57.5111020  16.7335630  89.3126400
  58.9445000  17.2098070  89.2104610  48.9284700  14.7656920  79.6413650
  48.6397750  15.3359780  80.3538630  49.6730460  14.2861370  80.0044880
  49.1154930  18.7077040  70.8516370  49.0329600  19.6507800  70.9931360
  48.7637990  18.5651950  69.9728720  60.4775670  20.7661870  81.5134230
  59.7456790  21.2748680  81.8624330  60.0800010  19.9491850  81.2123010
  56.9153060  17.4416070  79.9186720  56.9189120  17.0006020  79.0691260
  57.8104180  17.7633400  80.0258540  52.7655440  17.3242560  78.8780930
  52.4255490  17.8017790  79.6347980  52.0032760  16.8707680  78.5182030
  56.9773210  18.4428150  72.9093480  57.0986030  18.4014630  73.8579300
  56.5921720  19.3052300  72.7540210  60.9401580  16.2195550  80.9257170
  60.9574320  16.6704200  81.7699020  60.6917160  15.3201190  81.1390610
  55.9894710  20.7529290  72.3076780  55.4211610  20.3047540  71.6812690
  56.6983710  21.1122070  71.7741930  64.3672330  13.6327730  86.7643550
  64.6918100  12.9017390  87.2901530  64.4028840  13.3141370  85.8624540
  57.2161030  21.5017850  81.6652130  57.5831160  21.0276420  82.4113470
  57.0266090  22.3759420  82.0060470  50.0801520  16.2461540  77.7945600
  49.7948440  15.8817210  78.6324220  50.0180380  15.5142000  77.1808740
  55.0060400  20.5426490  83.9836340  54.7017470  21.4218470  84.2086700
  55.9606860  20.6026280  84.0193780  53.5342190  24.7487480  74.5803190
  52.7604450  24.2085100  74.4201910  54.2636820  24.2294090  74.2420950
  64.2930170  23.7452840  80.3729580  65.0129290  24.2408130  79.9825690
  64.0911990  23.0670730  79.7283450  59.7540110  15.1390800  74.5158970
  58.9404720  14.6403970  74.4404280  59.5602060  15.9789050  74.0995320
  59.6748970  23.8161900  86.2598580  59.6086280  22.8957570  86.0056170
  59.0454110  23.9137340  86.9743220  62.4688500  19.5110450  72.8121130
  63.3568120  19.8227680  72.6372470  62.4393590  18.6382700  72.4201710
  53.5779590  24.4167860  78.2182000  54.0958260  23.6136120  78.1638890
  53.1263610  24.3547000  79.0598830  58.4649090  25.6834140  73.4909300
  58.8064790  26.4276370  72.9952620  57.6361800  25.9965260  73.8534130
  51.0624130  21.3829230  85.1307700  50.7039070  22.0483080  85.7181040
  50.7678690  20.5512780  85.5020320  54.2637250  21.8413470  88.0147250
  53.9637390  21.9870650  87.1175070  55.0348490  21.2818760  87.9220640
  59.6065700  26.6382470  86.0102380  59.6210240  25.7063430  85.7921290
  58.8990800  26.7242230  86.6492150  64.7402770  20.8222290  72.2800990
  64.6566490  21.2536510  71.4297430  65.4596960  21.2820640  72.7127810
  65.8176910  23.2789810  85.3570960  65.0925100  23.8718590  85.1600350
  66.3452370  23.2713350  84.5584330  65.7690020  27.6764550  75.0083120
  65.1266180  27.0220170  75.2826840  65.3820680  28.0819640  74.2323790
  61.3476500  25.0049980  78.8554810  61.7000320  24.4078110  78.1956180
  60.4638830  24.6794210  79.0263060  57.4339780  25.7647670  76.2625220
  58.1210910  26.3116880  76.6432810  56.6472200  26.3088400  76.2974830
  49.5732180  21.3820490  71.7542300  50.4427030  21.6645290  72.0378220
  49.0822500  22.1956360  71.6391110  56.7366990  22.7693700  75.8750580
  57.1929770  23.5798950  76.1010770  56.3855200  22.4516840  76.7069070
  59.0399600  28.2800040  83.1042880  59.6841820  28.4859420  83.7816300
  59.4029040  27.5188440  82.6513730  52.6378770  13.1131350  76.3473100
  52.5093400  13.1049250  77.2958020  51.8140790  13.4514440  75.9964110
  60.3131680  26.2832390  81.8220330  60.9553910  25.5825550  81.9352500
  60.8381030  27.0630830  81.6417220  64.1587400  26.5681010  71.5459470
  63.9324980  25.8511450  72.1384110  63.7683600  26.3193450  70.7081220
  62.0869300  27.0827290  85.0256390  62.4225540  27.6693980  85.7034310
  61.1669640  26.9520000  85.2554180  49.6372700  14.8722470  85.8079800
  48.9231220  15.0719390  86.4132410  50.0567740  14.0962040  86.1794600
  63.7403650  24.4852950  73.2073630  63.4525350  24.9465640  73.9951510
  64.5355820  24.0250720  73.4757850  57.9157880  27.1318620  88.1944450
  57.5954750  26.4127860  88.7390140  57.2416240  27.8073690  88.2680510
  55.9572050  27.9779070  73.1377600  55.9482150  28.7108760  72.5222110
  55.0370410  27.7310650  73.2304560  51.5578690  23.1993960  73.8824360
  50.9506640  23.9392860  73.8919660  52.0328040  23.2893320  73.0562560
  61.1311480  17.3644780  83.5581250  61.4992300  16.5439990  83.8860820
  60.2709680  17.4246670  83.9736900  64.4973510  16.3201720  74.3668810
  63.8686670  16.4247390  73.6527040  64.0025430  16.5398500  75.1562690
  58.9431650  28.0407310  71.8002790  59.0443630  27.8371300  70.8704770
  58.0433390  27.7865590  72.0050570  56.4657540  18.5987670  75.7826690
  55.7573690  19.0674010  76.2240300  56.7502020  17.9409680  76.4171880
  58.0913470  20.0184370  83.7819220  58.5898720  20.4930190  84.4471070
  58.2336420  19.0947890  83.9889250  60.4972970  15.3238330  77.2222480
  60.3740750  15.3424460  76.2731990  61.4457530  15.3717270  77.3420880
  57.5849760  30.5593630  76.4950460  57.8391260  30.5215020  75.5729830
  56.6362240  30.4326960  76.4878710  54.6692560  16.9072750  73.1577400
  55.5183090  17.3442900  73.0917590  54.3023830  17.2193010  73.9849460
  65.2980330  16.2352330  84.6247610  64.7953930  16.9757730  84.9641420
  66.1136990  16.6236330  84.3084400  63.5902340  21.4785510  78.0708970
  62.6492480  21.4935740  78.2456660  63.9046410  20.6921470  78.5169270
  53.5683980  23.1605110  71.6312930  54.3347250  23.0486470  72.1938360
  53.6458670  22.4643080  70.9789700  52.2630740  20.5930180  72.3145820
  52.3434330  19.6457690  72.4263220  53.1550490  20.9237060  72.4206480
  65.5927920  28.6494360  79.7463230  65.7175340  29.4725530  80.2187040
  66.4593480  28.4385090  79.3987380  60.9068360  26.0351510  88.5541350
  60.3006520  26.0583110  87.8137100  60.6022470  25.3034550  89.0908600
  62.3368730  29.7631800  87.1650760  63.2890480  29.6789820  87.1151000
  62.1896950  30.4273510  87.8384550  65.2277930  29.1426010  72.6642670
  64.9419440  28.7291150  71.8496850  65.0297480  30.0713720  72.5443190
  49.7901540  22.4145100  87.5501990  50.2940560  21.8352380  88.1218220
  49.0508960  22.6985330  88.0878360  56.6925160  25.1359290  71.1048280
  56.5875800  24.5211640  71.8309660  56.5249380  24.6125180  70.3211290
  56.8439480  23.8216090  87.0837510  56.0785150  24.3901090  86.9992180
  57.0255440  23.5292300  86.1905740  59.9327890  24.1979320  71.7090270
  59.3837990  24.6448620  72.3533010  60.5547150  23.6928570  72.2327940
  63.9862830  25.5521420  87.6412530  64.7272300  25.8897180  87.1379990
  63.2235510  25.7213480  87.0882300  51.8224620  20.5574690  88.4452060
  51.8629960  20.2588560  89.3537290  52.6770120  20.9582300  88.2859580
  55.6003010  23.1570240  73.6055570  56.0219430  22.9910110  74.4486960
  55.7253850  22.3470470  73.1110710  53.7630430  19.1366790  86.4126550
  53.2326890  18.6457740  85.7849890  54.4318500  19.5650990  85.8784480
  58.1130650  22.1807850  70.8532670  58.6336310  21.4656870  70.4873820
  58.7599050  22.8193720  71.1533180  62.6608490  23.6036250  86.1767740
  63.0749510  23.7581330  87.0258160  61.7259490  23.7291470  86.3393520
  63.1330660  20.9432410  88.1806890  63.7151430  20.1884730  88.0927370
  63.3092430  21.4739850  87.4038370  54.2502730  16.1029160  86.4923840
  54.1559600  15.4849910  85.7674710  53.6700120  16.8295450  86.2653750
  57.0164170  14.6602400  83.5251230  56.5681470  14.6826660  82.6796780
  56.3829370  14.2621420  84.1221530  57.4223720  23.5556730  84.1463670
  57.8411830  24.3989460  83.9739910  56.5032350  23.6928770  83.9170450
  59.7587620  21.2872910  85.5301510  59.8783830  20.6914050  86.2696350
  60.6181620  21.3242600  85.1102810  62.0975520  21.8410100  84.1064020
  61.5710740  22.3652720  83.5029160  62.4406860  22.4737490  84.7373750
  54.4961910  19.2303470  70.5513730  54.2950970  18.3670830  70.9127070
  54.3253960  19.1436830  69.6135330  55.2731140  29.8609740  85.2621400
  54.7352230  30.5855800  84.9430100  55.5265100  29.3840080  84.4718740
  56.5256390  17.8294260  86.7877330  57.1156080  17.5210110  87.4755150
  55.7076630  17.3574010  86.9437230  61.3449820  17.4460070  87.0210350
  60.6565340  16.7841610  86.9560340  62.0655840  16.9998340  87.4658810
  61.9750220  14.0411700  73.0800610  62.2552510  13.1979600  73.4360030
  61.2015950  14.2734810  73.5939360  53.2944710  16.3304090  70.5391610
  53.5970610  16.3371520  69.6310760  54.0339300  15.9801950  71.0359270
  58.1293350  31.0960950  85.5208050  58.0552050  31.9996090  85.8280420
  57.2272190  30.7772850  85.4930120  56.5129640  15.2738710  71.5247810
  56.1651640  14.5962700  70.9450260  56.7142410  14.8128220  72.3391200
  52.3174840  25.6346510  71.3721410  52.7549710  26.1776180  72.0278990
  52.8022570  24.8093460  71.3817750  54.1282560  26.7544550  76.4843640
  53.8278100  26.6309520  77.3847550  54.0220050  25.8953140  76.0759370
  65.6573030  28.7923130  85.8500610  65.0575020  28.8515690  85.1064530
  65.7866930  27.8528110  85.9797460  66.8974480  26.5340950  71.1870320
  66.0667440  26.6017600  71.6577550  67.0746310  27.4245070  70.8837180
  66.3530940  23.2788430  73.6904520  67.1149850  23.8485080  73.7964210
  66.3685310  22.7115630  74.4612830  49.8535280  21.8026360  77.9212180
  49.1984120  21.5338000  77.2771880  50.6913230  21.6930840  77.4714160
  67.3590910  24.1338530  78.5346450  67.7299740  23.3505850  78.1282420
  67.9992840  24.8227630  78.3563750  64.3424670  25.5175110  83.9476770
  63.5284510  25.9472270  84.2102560  64.7498870  26.1293520  83.3345820
  66.4050110  23.5722800  70.8477040  66.6798950  24.4801680  70.7196260
  66.2160850  23.5085330  71.7839030  62.8025720  16.5967650  72.1430670
  63.2210600  16.4098630  71.3027330  62.4961780  15.7446700  72.4533600
  66.3015450  21.5091790  75.8406470  65.9259050  20.7419720  75.4087760
  65.5718570  21.8914490  76.3281400  50.8911210  22.1878930  82.4615520
  51.2584250  22.1006330  83.3411540  50.3222030  21.4245480  82.3622380
  65.6915070  20.6563310  85.4745990  65.4601160  20.4276060  84.5743940
  65.9519620  21.5762860  85.4290880  50.4427210  19.0988020  86.3673940
  49.5483260  19.0654780  86.7067650  50.9824760  19.2974810  87.1325190
  64.1303140  15.8819740  88.2525690  65.0073320  15.8903140  88.6359690
  64.1423980  15.1450580  87.6418040  49.0673360  19.0125290  73.8637510
  48.1637440  19.2755490  73.6889170  49.5513980  19.2836460  73.0837470
  65.5766410  19.7349280  79.1413710  66.1003890  19.2411930  78.5103880
  66.1625830  19.8699640  79.8861280  65.7556130  19.8189150  82.6633260
  64.8058840  19.7852690  82.7778250  65.9369140  20.7289260  82.4283030
  51.6100570  18.0690830  71.7731890  52.3192270  17.6474050  71.2879170
  50.8940510  18.1366060  71.1415240  51.2574730  14.1230160  70.8134540
  51.9802860  14.6639100  71.1315760  51.5299250  13.8493580  69.9376080
  65.0666380  18.9922630  75.0806120  65.5625500  18.7593500  75.8655000
  64.8682450  18.1534470  74.6643760  50.9466920  13.3736350  80.7157160
  51.5943110  12.8233730  80.2752320  51.3668760  13.6279500  81.5372970
  66.4953540  17.6283580  77.6143800  66.3852820  17.4739620  78.5526070
  67.2561130  17.1004520  77.3719210  64.8419260  13.5677710  84.0726800
  65.4791480  14.1811850  84.4385990  64.9894150  13.6038370  83.1276030
  67.3843810  15.4591500  70.8549940  68.3093120  15.3272680  70.6468230
  67.3619600  15.5384320  71.8086390  67.4582300  16.2302160  73.4806650
  66.6633800  16.1647280  74.0099560  67.6625580  17.1652800  73.4692000
  64.4000720  30.2693710  77.4745040  64.9959790  29.9478280  76.7979460
  64.6578870  29.7965530  78.2658310  50.6998920  13.5292020  83.4582480
  50.3513740  13.9855840  84.2240660  50.3686620  12.6349150  83.5404910
  56.0069320  28.2571210  83.2245390  55.7660680  28.5245770  82.3375910
  56.9471960  28.4276940  83.2796250  58.2123740  14.7203900  86.9801900
  58.1512630  15.3125730  87.7297310  59.1524120  14.6129860  86.8352160
  60.8498300  14.3773960  86.6194190  61.4638710  14.6953250  85.9575270
  61.3947860  13.8922550  87.2390050  67.2673480  30.2765590  84.0256030
  66.7731760  30.6734460  83.3083160  66.6586770  29.6514800  84.4193310
  51.3719560  13.0568220  86.7333250  51.9202550  12.8756270  85.9699360
  51.4374870  12.2662330  87.2689560  61.5906340  12.9406100  82.9463480
  60.7166180  13.2741210  82.7436410  61.4817090  12.4679280  83.7715350
  62.4978320  15.1476970  84.3305200  62.1691680  14.3328730  83.9506930
  63.4460620  15.1046780  84.2070890  64.9512930  30.9189010  81.3042770
  64.4915900  31.6704820  80.9300790  64.3225390  30.1995480  81.2457570
  51.7763550  27.0132250  83.6941490  51.0497610  26.3937540  83.6267440
  51.8372700  27.4072860  82.8239570  55.3808650  29.2277250  80.4790900
  55.8973670  28.6164610  79.9539160  56.0306030  29.7306030  80.9701910
  58.1204150  30.1185740  81.3059880  58.4081960  29.8640040  80.4292890
  58.6327370  29.5663100  81.8965450  59.3381160  13.8575940  81.8856390
  58.5552950  14.3321440  82.1653150  59.0444090  12.9530770  81.7769570
  63.8902230  14.5599040  79.9305480  64.3310320  14.5044140  79.0827080
  63.6209820  15.4757050  80.0015660  65.7540800  14.1914280  77.9414300
  65.6929200  13.2475500  77.7945320  66.5332830  14.2994370  78.4867760
  50.6821570  14.1623420  74.4070110  51.4400930  14.2752300  73.8334140
  50.2198740  14.9992620  74.3613540  57.2235380  16.2762690  77.3972420
  56.4109890  15.9019580  77.0568300  57.7277020  15.5207770  77.6993610
  61.7260360  12.9405140  78.6355490  62.3289730  13.5125350  79.1104010
  60.9853350  13.5044580  78.4129390  64.8694960  13.3426700  73.9095770
  65.0645590  14.2410150  74.1763200  64.0824830  13.1113780  74.4028720
  51.6656250  29.0239870  74.3488390  51.1403870  29.4047900  73.6450350
  51.5900830  29.6490640  75.0698100  53.0546720  14.6887470  72.9472080
  53.5839480  13.9017270  72.8180030  53.6875040  15.3678660  73.1807610
  55.2484560  14.4262610  76.0017470  54.6187300  13.7249920  76.1687600
  54.7089700  15.1866740  75.7850630  58.1876510  31.0401840  88.6728080
  59.1143820  30.8046110  88.7164040  58.1726940  31.8673840  88.1914110
  66.4221570  30.5827410  75.6702330  66.5973760  29.8965150  75.0263250
  65.7243140  31.1074460  75.2779000  55.3740120  13.7046590  88.4369960
  55.0924390  14.2080190  87.6730780  55.7559820  12.9068340  88.0712090
  53.4264010  27.0886980  73.2283970  52.7972890  27.5572080  73.7769800
  53.5411840  26.2436200  73.6630160  61.9755580  13.1200170  89.0150430
  61.8621030  13.4394780  89.9101950  62.7925320  13.5212680  88.7187710
  64.7554070  30.2671700  88.4969120  65.5479390  29.7720930  88.2895080
  65.0487220  30.9461840  89.1044730  60.8813730  21.1392640  59.3785170
  60.8007780  20.2247250  59.1076880  60.4678150  21.6359710  58.6724880
  59.0131770  22.9171660  61.2594440  58.2373870  22.4372100  61.5493010
  59.6644700  22.2377310  61.0850600  53.0297600  23.2291470  62.1370200
  52.1982480  22.9740180  62.5366710  53.6378580  23.3002240  62.8728120
  63.0339200  27.3231850  60.0393570  62.5720730  26.5519090  60.3680740
  63.8464750  27.3497920  60.5446020  53.0098860  27.2631560  62.3328220
  53.3126900  26.3729300  62.1538440  53.7542450  27.8201780  62.1050470
  51.4389550  18.1893360  55.9212590  50.5506250  18.5309330  55.8192470
  51.7230740  17.9893680  55.0293420  49.4022560  20.7899010  61.8052290
  49.9738670  20.0221210  61.8055930  49.4024100  21.0887770  60.8958900
  59.2602510  29.6089860  59.6597560  58.6413950  30.0647360  59.0892000
  60.1154290  29.7641320  59.2587260  58.4540760  25.5928850  61.2664600
  58.3849040  24.6518790  61.1053730  59.2160620  25.6830260  61.8387170
  50.6447430  16.1983370  63.5921220  50.4650270  15.3009120  63.8723980
  50.2427510  16.7455240  64.2668170  59.4845930  18.3999230  61.4933530
  59.8610750  17.5271110  61.3807200  59.3865440  18.7357930  60.6023970
  53.6150940  16.7724860  56.9550970  53.7217690  17.6728590  57.2619730
  52.7043300  16.7242830  56.6645620  63.2670050  15.8949670  58.4261870
  64.0879670  15.4046240  58.4687350  63.3004130  16.4847330  59.1793710
  51.2634100  18.6943870  62.2003560  51.9444210  18.9582240  62.8190960
  50.9482150  17.8544740  62.5341570  55.4558670  19.7411230  61.2876150
  55.9636890  20.2392200  61.9281170  55.9871910  18.9646430  61.1115510
  67.5569600  17.9116420  64.9905500  66.8521770  18.2998130  64.4720610
  67.8227520  18.6066710  65.5926430  53.7394770  14.3809790  65.5539570
  53.7413210  14.8982180  64.7485470  52.9099080  13.9039970  65.5309500
  60.1265860  24.4929100  57.0529470  59.5083130  24.9578550  56.4892190
  60.6389110  25.1856580  57.4698980  54.9897620  24.0204970  63.7313070
  54.6567000  24.6473890  64.3734140  55.1664300  24.5466850  62.9514740
  63.5031530  17.8350050  61.1989410  62.7987100  18.1234940  61.7792520
  63.8643690  18.6450160  60.8388970  53.4210100  16.0919750  63.5610020
  53.7626910  16.9361800  63.2663890  52.4825910  16.2403490  63.6775360
  54.2016720  25.9885770  65.5462250  54.8190720  26.6636850  65.2646700
  53.3409840  26.3973750  65.4549750  49.4949060  25.1785630  54.4269100
  49.1177040  25.6672730  53.6954000  49.7522130  25.8510910  55.0575630
  65.1194310  27.4525180  63.4616890  64.4357830  28.1224290  63.4533560
  65.6588600  27.6505830  62.6961750  66.5718450  17.2804840  61.5898620
  65.6243360  17.3143820  61.7214050  66.8968440  18.0943790  61.9747980
  57.1037990  13.5802020  59.8854610  57.4112970  13.0248910  59.1690110
  56.1738690  13.7146480  59.7027600  62.6553050  29.2969310  62.1762070
  62.6680210  28.8931600  61.3084330  62.1028270  30.0716600  62.0723500
  63.9498470  26.0185530  57.2652240  63.8394800  25.0759860  57.3901660
  63.9466720  26.3801170  58.1515000  62.0538490  24.1999150  63.5044680
  62.4707280  23.9859260  62.6698140  62.7778310  24.4571940  64.0753300
  59.4918750  21.6450850  56.6214730  58.5648030  21.5788230  56.8503200
  59.6443570  22.5830980  56.5069970  59.4787830  17.9167850  53.6181890
  58.5391500  18.0781810  53.7034350  59.7971090  18.6353530  53.0717880
  66.0000590  22.5986370  63.5960920  65.1719220  22.6679460  63.1211050
  66.5951070  23.1840680  63.1276750  63.5216040  23.2071150  57.1249980
  62.9028460  22.8690700  56.4776280  63.5040490  22.5630910  57.8329170
  62.9642600  19.3855690  64.5415790  62.5513780  20.2109400  64.7955780
  62.2318550  18.8000730  64.3492150  55.0975390  22.1715590  59.4034460
  54.6932390  21.4592840  58.9080360  55.1838510  21.8268830  60.2922500
  55.5657090  25.8583150  61.5673670  55.2685380  25.2528620  60.8881450
  56.5156910  25.8960460  61.4563030  53.8104010  18.9458800  63.1833500
  54.3618600  19.0554140  62.4086750  54.3247520  19.3196400  63.8988730
  63.6542700  29.4315020  65.2296770  63.1773260  30.2387210  65.0369380
  62.9704490  28.7793350  65.3822980  54.6575520  25.5964840  68.2181470
  53.7604050  25.8204810  68.4654870  54.6828390  25.7199780  67.2692870
  61.6980740  22.4457960  54.1322730  62.1374020  21.6080390  53.9860550
  62.4109160  23.0787360  54.2186870  53.4846740  22.4678160  66.7938840
  53.3454510  23.3400960  67.1626240  52.6028100  22.1250970  66.6486780
  59.8076120  27.3854030  58.1003970  60.2472030  28.1278360  57.6859360
  59.7463010  27.6280600  59.0242930  65.2797880  13.7000770  52.4463770
  64.9670540  13.7927600  53.3462840  66.0410350  14.2781800  52.3961200
  51.7980020  21.0660570  56.9041110  51.6777620  21.7922660  56.2922380
  51.4880910  20.2963480  56.4269020  67.2341910  29.1926960  70.2988160
  67.7101630  29.6709850  70.9777240  67.8549070  29.1244450  69.5733660
  49.4365390  24.2375710  62.7109750  49.5145810  24.3724480  61.7665470
  50.0507070  23.5291600  62.9037870  50.6813020  25.9375900  59.1215930
  50.2741100  26.0790490  58.2669530  51.5726030  25.6536060  58.9187140
  66.6375160  26.3839810  67.4588170  66.7638220  26.1451690  66.5405350
  66.6796540  25.5524350  67.9310250  62.4746300  30.3723150  55.4566980
  62.3147440  30.0826090  56.3548810  62.3093010  29.5963280  54.9212210
  62.1772430  27.8810710  54.0164980  61.4837590  27.8788000  53.3567260
  62.9195290  27.4570030  53.5859150  61.7422360  29.5073420  58.0913470
  62.1979310  28.7262800  58.4052090  62.0814880  30.2180240  58.6354650
  66.4899170  18.4372270  68.4237910  65.8743440  18.9451940  67.8953370
  66.1695590  17.5370600  68.3663850  49.4924910  25.2789880  65.2504210
  49.6555950  24.8095240  64.4323580  49.9577360  24.7713440  65.9153050
  54.2643680  14.4095640  60.2864780  53.8211830  15.1905180  59.9549300
  54.8228670  14.7325530  60.9935720  58.5513490  17.2764160  65.8900100
  58.0892860  17.4847180  66.7020040  58.1491600  16.4623510  65.5870770
  63.5518000  18.4973110  67.0196760  62.7011590  18.1978860  67.3405830
  63.3919790  18.7415120  66.1080580  60.6467710  19.9974860  69.1195550
  60.9721120  19.1638610  68.7797780  61.4348040  20.5203380  69.2673880
  57.3802500  14.0306340  55.1670610  56.7556680  14.0266210  55.8923920
  57.2932620  13.1637300  54.7706580  56.3019580  14.9542970  62.1454380
  56.5991910  15.8605800  62.0646400  56.8505140  14.4661750  61.5313950
  54.0557900  19.5329210  58.0146030  53.8298820  19.3166380  58.9192650
  53.2750430  19.9657670  57.6692000  61.2855660  19.5392580  56.6136680
  60.6864550  20.2628380  56.4300300  61.8335270  19.4769360  55.8313130
  56.4957110  20.4314790  68.6806300  56.4000710  19.4909520  68.5306700
  57.3389090  20.6529860  68.2854370  59.8920530  18.1756120  58.6439960
  60.2850100  18.4928320  57.8308650  60.2537380  17.2968000  58.7584480
  51.6267650  16.8428460  66.8340080  51.2331040  17.6903670  67.0412860
  50.9386050  16.2054830  67.0248720  58.2012700  16.9263430  69.9036820
  57.5111020  16.7335630  70.5382910  58.9445000  17.2098070  70.4361120
  48.9284700  14.7656920  60.8670160  48.6397750  15.3359780  61.5795140
  49.6730460  14.2861370  61.2301390  49.1154930  18.7077040  52.0772880
  49.0329600  19.6507800  52.2187870  48.7637990  18.5651950  51.1985230
  60.4775670  20.7661870  62.7390740  59.7456790  21.2748680  63.0880840
  60.0800010  19.9491850  62.4379520  56.9153060  17.4416070  61.1443230
  56.9189120  17.0006020  60.2947770  57.8104180  17.7633400  61.2515050
  52.7655440  17.3242560  60.1037440  52.4255490  17.8017790  60.8604490
  52.0032760  16.8707680  59.7438540  56.9773210  18.4428150  54.1349990
  57.0986030  18.4014630  55.0835810  56.5921720  19.3052300  53.9796720
  60.9401580  16.2195550  62.1513680  60.9574320  16.6704200  62.9955530
  60.6917160  15.3201190  62.3647120  55.9894710  20.7529290  53.5333290
  55.4211610  20.3047540  52.9069200  56.6983710  21.1122070  52.9998440
  64.3672330  13.6327730  67.9900060  64.6918100  12.9017390  68.5158040
  64.4028840  13.3141370  67.0881050  51.0663890  24.6541310  67.4100020
  50.6818680  24.0134980  68.0082980  51.3776080  25.3577430  67.9794750
  57.2161030  21.5017850  62.8908640  57.5831160  21.0276420  63.6369980
  57.0266090  22.3759420  63.2316980  50.0801520  16.2461540  59.0202110
  49.7948440  15.8817210  59.8580730  50.0180380  15.5142000  58.4065250
  55.0060400  20.5426490  65.2092850  54.7017470  21.4218470  65.4343210
  55.9606860  20.6026280  65.2450290  53.5342190  24.7487480  55.8059700
  52.7604450  24.2085100  55.6458420  54.2636820  24.2294090  55.4677460
  64.2930170  23.7452840  61.5986090  65.0129290  24.2408130  61.2082200
  64.0911990  23.0670730  60.9539960  59.7540110  15.1390800  55.7415480
  58.9404720  14.6403970  55.6660790  59.5602060  15.9789050  55.3251830
  59.6748970  23.8161900  67.4855090  59.6086280  22.8957570  67.2312680
  59.0454110  23.9137340  68.1999730  62.4688500  19.5110450  54.0377640
  63.3568120  19.8227680  53.8628980  62.4393590  18.6382700  53.6458220
  53.5779590  24.4167860  59.4438510  54.0958260  23.6136120  59.3895400
  53.1263610  24.3547000  60.2855340  58.4649090  25.6834140  54.7165810
  58.8064790  26.4276370  54.2209130  57.6361800  25.9965260  55.0790640
  51.0624130  21.3829230  66.3564210  50.7039070  22.0483080  66.9437550
  50.7678690  20.5512780  66.7276830  54.2637250  21.8413470  69.2403760
  53.9637390  21.9870650  68.3431580  55.0348490  21.2818760  69.1477150
  59.6065700  26.6382470  67.2358890  59.6210240  25.7063430  67.0177800
  58.8990800  26.7242230  67.8748660  64.7402770  20.8222290  53.5057500
  64.6566490  21.2536510  52.6553940  65.4596960  21.2820640  53.9384320
  65.8176910  23.2789810  66.5827470  65.0925100  23.8718590  66.3856860
  66.3452370  23.2713350  65.7840840  65.7690020  27.6764550  56.2339630
  65.1266180  27.0220170  56.5083350  65.3820680  28.0819640  55.4580300
  61.3476500  25.0049980  60.0811320  61.7000320  24.4078110  59.4212690
  60.4638830  24.6794210  60.2519570  57.4339780  25.7647670  57.4881730
  58.1210910  26.3116880  57.8689320  56.6472200  26.3088400  57.5231340
  49.5732180  21.3820490  52.9798810  50.4427030  21.6645290  53.2634730
  49.0822500  22.1956360  52.8647620  56.7366990  22.7693700  57.1007090
  57.1929770  23.5798950  57.3267280  56.3855200  22.4516840  57.9325580
  52.6378770  13.1131350  57.5729610  52.5093400  13.1049250  58.5214530
  51.8140790  13.4514440  57.2220620  60.3131680  26.2832390  63.0476840
  60.9553910  25.5825550  63.1609010  60.8381030  27.0630830  62.8673730
  64.1587400  26.5681010  52.7715980  63.9324980  25.8511450  53.3640620
  63.7683600  26.3193450  51.9337730  62.0869300  27.0827290  66.2512900
  62.4225540  27.6693980  66.9290820  61.1669640  26.9520000  66.4810690
  49.6372700  14.8722470  67.0336310  48.9231220  15.0719390  67.6388920
  50.0567740  14.0962040  67.4051110  63.7403650  24.4852950  54.4330140
  63.4525350  24.9465640  55.2208020  64.5355820  24.0250720  54.7014360
  55.9572050  27.9779070  54.3634110  55.9482150  28.7108760  53.7478620
  55.0370410  27.7310650  54.4561070  51.5578690  23.1993960  55.1080870
  50.9506640  23.9392860  55.1176170  52.0328040  23.2893320  54.2819070
  61.1311480  17.3644780  64.7837760  61.4992300  16.5439990  65.1117330
  60.2709680  17.4246670  65.1993410  64.4973510  16.3201720  55.5925320
  63.8686670  16.4247390  54.8783550  64.0025430  16.5398500  56.3819200
  58.9431650  28.0407310  53.0259300  59.0443630  27.8371300  52.0961280
  58.0433390  27.7865590  53.2307080  56.4657540  18.5987670  57.0083200
  55.7573690  19.0674010  57.4496810  56.7502020  17.9409680  57.6428390
  58.0913470  20.0184370  65.0075730  58.5898720  20.4930190  65.6727580
  58.2336420  19.0947890  65.2145760  60.4972970  15.3238330  58.4478990
  60.3740750  15.3424460  57.4988500  61.4457530  15.3717270  58.5677390
  57.5849760  30.5593630  57.7206970  57.8391260  30.5215020  56.7986340
  56.6362240  30.4326960  57.7135220  54.6692560  16.9072750  54.3833910
  55.5183090  17.3442900  54.3174100  54.3023830  17.2193010  55.2105970
  65.2980330  16.2352330  65.8504120  64.7953930  16.9757730  66.1897930
  66.1136990  16.6236330  65.5340910  63.5902340  21.4785510  59.2965480
  62.6492480  21.4935740  59.4713170  63.9046410  20.6921470  59.7425780
  53.5683980  23.1605110  52.8569440  54.3347250  23.0486470  53.4194870
  53.6458670  22.4643080  52.2046210  52.2630740  20.5930180  53.5402330
  52.3434330  19.6457690  53.6519730  53.1550490  20.9237060  53.6462990
  65.5927920  28.6494360  60.9719740  65.7175340  29.4725530  61.4443550
  66.4593480  28.4385090  60.6243890  53.0645450  30.7425570  60.6436870
  53.8007930  30.1941030  60.9145440  53.4486370  31.6081580  60.5042860
  49.9490930  26.8099140  56.5178380  49.0230710  27.0520280  56.5083790
  50.4147360  27.6373400  56.3963130  60.9068360  26.0351510  69.7797860
  60.3006520  26.0583110  69.0393610  60.6022470  25.3034550  70.3165110
  62.3368730  29.7631800  68.3907270  63.2890480  29.6789820  68.3407510
  62.1896950  30.4273510  69.0641060  65.2277930  29.1426010  53.8899180
  64.9419440  28.7291150  53.0753360  65.0297480  30.0713720  53.7699700
  49.7901540  22.4145100  68.7758500  50.2940560  21.8352380  69.3474730
  49.0508960  22.6985330  69.3134870  56.6925160  25.1359290  52.3304790
  56.5875800  24.5211640  53.0566170  56.5249380  24.6125180  51.5467800
  56.8439480  23.8216090  68.3094020  56.0785150  24.3901090  68.2248690
  57.0255440  23.5292300  67.4162250  59.9327890  24.1979320  52.9346780
  59.3837990  24.6448620  53.5789520  60.5547150  23.6928570  53.4584450
  63.9862830  25.5521420  68.8669040  64.7272300  25.8897180  68.3636500
  63.2235510  25.7213480  68.3138810  51.8224620  20.5574690  69.6708570
  51.8629960  20.2588560  70.5793800  52.6770120  20.9582300  69.5116090
  55.6003010  23.1570240  54.8312080  56.0219430  22.9910110  55.6743470
  55.7253850  22.3470470  54.3367220  53.7630430  19.1366790  67.6383060
  53.2326890  18.6457740  67.0106400  54.4318500  19.5650990  67.1040990
  58.1130650  22.1807850  52.0789180  58.6336310  21.4656870  51.7130330
  58.7599050  22.8193720  52.3789690  62.6608490  23.6036250  67.4024250
  63.0749510  23.7581330  68.2514670  61.7259490  23.7291470  67.5650030
  63.1330660  20.9432410  69.4063400  63.7151430  20.1884730  69.3183880
  63.3092430  21.4739850  68.6294880  54.2502730  16.1029160  67.7180350
  54.1559600  15.4849910  66.9931220  53.6700120  16.8295450  67.4910260
  57.0164170  14.6602400  64.7507740  56.5681470  14.6826660  63.9053290
  56.3829370  14.2621420  65.3478040  57.4223720  23.5556730  65.3720180
  57.8411830  24.3989460  65.1996420  56.5032350  23.6928770  65.1426960
  59.7587620  21.2872910  66.7558020  59.8783830  20.6914050  67.4952860
  60.6181620  21.3242600  66.3359320  62.0975520  21.8410100  65.3320530
  61.5710740  22.3652720  64.7285670  62.4406860  22.4737490  65.9630260
  54.4961910  19.2303470  51.7770240  54.2950970  18.3670830  52.1383580
  54.3253960  19.1436830  50.8391840  56.5256390  17.8294260  68.0133840
  57.1156080  17.5210110  68.7011660  55.7076630  17.3574010  68.1693740
  61.3449820  17.4460070  68.2466860  60.6565340  16.7841610  68.1816850
  62.0655840  16.9998340  68.6915320  61.9750220  14.0411700  54.3057120
  62.2552510  13.1979600  54.6616540  61.2015950  14.2734810  54.8195870
  53.2944710  16.3304090  51.7648120  53.5970610  16.3371520  50.8567270
  54.0339300  15.9801950  52.2615780  56.5129640  15.2738710  52.7504320
  56.1651640  14.5962700  52.1706770  56.7142410  14.8128220  53.5647710
  58.6778680  30.2619460  54.3690920  59.5729470  30.6004430  54.3909680
  58.7096310  29.5398870  53.7415200  52.3174840  25.6346510  52.5977920
  52.7549710  26.1776180  53.2535500  52.8022570  24.8093460  52.6074260
  54.1282560  26.7544550  57.7100150  53.8278100  26.6309520  58.6104060
  54.0220050  25.8953140  57.3015880  65.6573030  28.7923130  67.0757120
  65.0575020  28.8515690  66.3321040  65.7866930  27.8528110  67.2053970
  66.8974480  26.5340950  52.4126830  66.0667440  26.6017600  52.8834060
  67.0746310  27.4245070  52.1093690  66.3530940  23.2788430  54.9161030
  67.1149850  23.8485080  55.0220720  66.3685310  22.7115630  55.6869340
  49.8535280  21.8026360  59.1468690  49.1984120  21.5338000  58.5028390
  50.6913230  21.6930840  58.6970670  67.3590910  24.1338530  59.7602960
  67.7299740  23.3505850  59.3538930  67.9992840  24.8227630  59.5820260
  64.3424670  25.5175110  65.1733280  63.5284510  25.9472270  65.4359070
  64.7498870  26.1293520  64.5602330  66.4050110  23.5722800  52.0733550
  66.6798950  24.4801680  51.9452770  66.2160850  23.5085330  53.0095540
  62.8025720  16.5967650  53.3687180  63.2210600  16.4098630  52.5283840
  62.4961780  15.7446700  53.6790110  66.3015450  21.5091790  57.0662980
  65.9259050  20.7419720  56.6344270  65.5718570  21.8914490  57.5537910
  50.8911210  22.1878930  63.6872030  51.2584250  22.1006330  64.5668050
  50.3222030  21.4245480  63.5878890  65.6915070  20.6563310  66.7002500
  65.4601160  20.4276060  65.8000450  65.9519620  21.5762860  66.6547390
  50.4427210  19.0988020  67.5930450  49.5483260  19.0654780  67.9324160
  50.9824760  19.2974810  68.3581700  64.1303140  15.8819740  69.4782200
  65.0073320  15.8903140  69.8616200  64.1423980  15.1450580  68.8674550
  49.0673360  19.0125290  55.0894020  48.1637440  19.2755490  54.9145680
  49.5513980  19.2836460  54.3093980  65.5766410  19.7349280  60.3670220
  66.1003890  19.2411930  59.7360390  66.1625830  19.8699640  61.1117790
  65.7556130  19.8189150  63.8889770  64.8058840  19.7852690  64.0034760
  65.9369140  20.7289260  63.6539540  51.6100570  18.0690830  52.9988400
  52.3192270  17.6474050  52.5135680  50.8940510  18.1366060  52.3671750
  51.2574730  14.1230160  52.0391050  51.9802860  14.6639100  52.3572270
  51.5299250  13.8493580  51.1632590  65.0666380  18.9922630  56.3062630
  65.5625500  18.7593500  57.0911510  64.8682450  18.1534470  55.8900270
  50.9466920  13.3736350  61.9413670  51.5943110  12.8233730  61.5008830
  51.3668760  13.6279500  62.7629480  66.4953540  17.6283580  58.8400310
  66.3852820  17.4739620  59.7782580  67.2561130  17.1004520  58.5975720
  64.8419260  13.5677710  65.2983310  65.4791480  14.1811850  65.6642500
  64.9894150  13.6038370  64.3532540  67.3843810  15.4591500  52.0806450
  68.3093120  15.3272680  51.8724740  67.3619600  15.5384320  53.0342900
  67.4582300  16.2302160  54.7063160  66.6633800  16.1647280  55.2356070
  67.6625580  17.1652800  54.6948510  64.4000720  30.2693710  58.7001550
  64.9959790  29.9478280  58.0235970  64.6578870  29.7965530  59.4914820
  50.6998920  13.5292020  64.6838990  50.3513740  13.9855840  65.4497170
  50.3686620  12.6349150  64.7661420  52.3063290  26.7011620  68.8492180
  52.2632920  26.3304530  69.7306640  52.4374300  27.6389190  68.9894000
  56.0069320  28.2571210  64.4501900  55.7660680  28.5245770  63.5632420
  56.9471960  28.4276940  64.5052760  58.2123740  14.7203900  68.2058410
  58.1512630  15.3125730  68.9553820  59.1524120  14.6129860  68.0608670
  60.8498300  14.3773960  67.8450700  61.4638710  14.6953250  67.1831780
  61.3947860  13.8922550  68.4646560  67.2673480  30.2765590  65.2512540
  66.7731760  30.6734460  64.5339670  66.6586770  29.6514800  65.6449820
  51.3719560  13.0568220  67.9589760  51.9202550  12.8756270  67.1955870
  51.4374870  12.2662330  68.4946070  61.5906340  12.9406100  64.1719990
  60.7166180  13.2741210  63.9692920  61.4817090  12.4679280  64.9971860
  62.4978320  15.1476970  65.5561710  62.1691680  14.3328730  65.1763440
  63.4460620  15.1046780  65.4327400  64.9512930  30.9189010  62.5299280
  64.4915900  31.6704820  62.1557300  64.3225390  30.1995480  62.4714080
  51.7763550  27.0132250  64.9198000  51.0497610  26.3937540  64.8523950
  51.8372700  27.4072860  64.0496080  55.3808650  29.2277250  61.7047410
  55.8973670  28.6164610  61.1795670  56.0306030  29.7306030  62.1958420
  59.3381160  13.8575940  63.1112900  58.5552950  14.3321440  63.3909660
  59.0444090  12.9530770  63.0026080  63.8902230  14.5599040  61.1561990
  64.3310320  14.5044140  60.3083590  63.6209820  15.4757050  61.2272170
  65.7540800  14.1914280  59.1670810  65.6929200  13.2475500  59.0201830
  66.5332830  14.2994370  59.7124270  50.6821570  14.1623420  55.6326620
  51.4400930  14.2752300  55.0590650  50.2198740  14.9992620  55.5870050
  57.2235380  16.2762690  58.6228930  56.4109890  15.9019580  58.2824810
  57.7277020  15.5207770  58.9250120  61.7260360  12.9405140  59.8612000
  62.3289730  13.5125350  60.3360520  60.9853350  13.5044580  59.6385900
  64.8694960  13.3426700  55.1352280  65.0645590  14.2410150  55.4019710
  64.0824830  13.1113780  55.6285230  51.6656250  29.0239870  55.5744900
  51.1403870  29.4047900  54.8706860  51.5900830  29.6490640  56.2954610
  53.0546720  14.6887470  54.1728590  53.5839480  13.9017270  54.0436540
  53.6875040  15.3678660  54.4064120  55.2484560  14.4262610  57.2273980
  54.6187300  13.7249920  57.3944110  54.7089700  15.1866740  57.0107140
  66.4221570  30.5827410  56.8958840  66.5973760  29.8965150  56.2519760
  65.7243140  31.1074460  56.5035510  55.3740120  13.7046590  69.6626470
  55.0924390  14.2080190  68.8987290  55.7559820  12.9068340  69.2968600
  53.4264010  27.0886980  54.4540480  52.7972890  27.5572080  55.0026310
  53.5411840  26.2436200  54.8886670  61.9755580  13.1200170  70.2406940
  61.8621030  13.4394780  71.1358460  62.7925320  13.5212680  69.9444220
  64.7554070  30.2671700  69.7225630  65.5479390  29.7720930  69.5151590
  65.0487220  30.9461840  70.3301240  60.8813730  21.1392640  40.6041680
  60.8007780  20.2247250  40.3333390  60.4678150  21.6359710  39.8981390
  59.0131770  22.9171660  42.4850950  58.2373870  22.4372100  42.7749520
  59.6644700  22.2377310  42.3107110  53.0297600  23.2291470  43.3626710
  52.1982480  22.9740180  43.7623220  53.6378580  23.3002240  44.0984630
  63.0339200  27.3231850  41.2650080  62.5720730  26.5519090  41.5937250
  63.8464750  27.3497920  41.7702530  53.0098860  27.2631560  43.5584730
  53.3126900  26.3729300  43.3794950  53.7542450  27.8201780  43.3306980
  51.4389550  18.1893360  37.1469100  50.5506250  18.5309330  37.0448980
  51.7230740  17.9893680  36.2549930  49.4022560  20.7899010  43.0308800
  49.9738670  20.0221210  43.0312440  49.4024100  21.0887770  42.1215410
  59.2602510  29.6089860  40.8854070  58.6413950  30.0647360  40.3148510
  60.1154290  29.7641320  40.4843770  58.4540760  25.5928850  42.4921110
  58.3849040  24.6518790  42.3310240  59.2160620  25.6830260  43.0643680
  50.6447430  16.1983370  44.8177730  50.4650270  15.3009120  45.0980490
  50.2427510  16.7455240  45.4924680  59.4845930  18.3999230  42.7190040
  59.8610750  17.5271110  42.6063710  59.3865440  18.7357930  41.8280480
  53.6150940  16.7724860  38.1807480  53.7217690  17.6728590  38.4876240
  52.7043300  16.7242830  37.8902130  63.2670050  15.8949670  39.6518380
  64.0879670  15.4046240  39.6943860  63.3004130  16.4847330  40.4050220
  51.2634100  18.6943870  43.4260070  51.9444210  18.9582240  44.0447470
  50.9482150  17.8544740  43.7598080  55.4558670  19.7411230  42.5132660
  55.9636890  20.2392200  43.1537680  55.9871910  18.9646430  42.3372020
  67.5569600  17.9116420  46.2162010  66.8521770  18.2998130  45.6977120
  67.8227520  18.6066710  46.8182940  53.7394770  14.3809790  46.7796080
  53.7413210  14.8982180  45.9741980  52.9099080  13.9039970  46.7566010
  60.1265860  24.4929100  38.2785980  59.5083130  24.9578550  37.7148700
  60.6389110  25.1856580  38.6955490  54.9897620  24.0204970  44.9569580
  54.6567000  24.6473890  45.5990650  55.1664300  24.5466850  44.1771250
  63.5031530  17.8350050  42.4245920  62.7987100  18.1234940  43.0049030
  63.8643690  18.6450160  42.0645480  53.4210100  16.0919750  44.7866530
  53.7626910  16.9361800  44.4920400  52.4825910  16.2403490  44.9031870
  54.2016720  25.9885770  46.7718760  54.8190720  26.6636850  46.4903210
  53.3409840  26.3973750  46.6806260  65.1194310  27.4525180  44.6873400
  64.4357830  28.1224290  44.6790070  65.6588600  27.6505830  43.9218260
  66.5718450  17.2804840  42.8155130  65.6243360  17.3143820  42.9470560
  66.8968440  18.0943790  43.2004490  57.1037990  13.5802020  41.1111120
  57.4112970  13.0248910  40.3946620  56.1738690  13.7146480  40.9284110
  62.6553050  29.2969310  43.4018580  62.6680210  28.8931600  42.5340840
  62.1028270  30.0716600  43.2980010  63.9498470  26.0185530  38.4908750
  63.8394800  25.0759860  38.6158170  63.9466720  26.3801170  39.3771510
  62.0538490  24.1999150  44.7301190  62.4707280  23.9859260  43.8954650
  62.7778310  24.4571940  45.3009810  59.4918750  21.6450850  37.8471240
  58.5648030  21.5788230  38.0759710  59.6443570  22.5830980  37.7326480
  59.4787830  17.9167850  34.8438400  58.5391500  18.0781810  34.9290860
  59.7971090  18.6353530  34.2974390  66.0000590  22.5986370  44.8217430
  65.1719220  22.6679460  44.3467560  66.5951070  23.1840680  44.3533260
  63.5216040  23.2071150  38.3506490  62.9028460  22.8690700  37.7032790
  63.5040490  22.5630910  39.0585680  62.9642600  19.3855690  45.7672300
  62.5513780  20.2109400  46.0212290  62.2318550  18.8000730  45.5748660
  55.0975390  22.1715590  40.6290970  54.6932390  21.4592840  40.1336870
  55.1838510  21.8268830  41.5179010  55.5657090  25.8583150  42.7930180
  55.2685380  25.2528620  42.1137960  56.5156910  25.8960460  42.6819540
  53.8104010  18.9458800  44.4090010  54.3618600  19.0554140  43.6343260
  54.3247520  19.3196400  45.1245240  63.6542700  29.4315020  46.4553280
  63.1773260  30.2387210  46.2625890  62.9704490  28.7793350  46.6079490
  54.6575520  25.5964840  49.4437980  53.7604050  25.8204810  49.6911380
  54.6828390  25.7199780  48.4949380  61.6980740  22.4457960  35.3579240
  62.1374020  21.6080390  35.2117060  62.4109160  23.0787360  35.4443380
  53.4846740  22.4678160  48.0195350  53.3454510  23.3400960  48.3882750
  52.6028100  22.1250970  47.8743290  59.8076120  27.3854030  39.3260480
  60.2472030  28.1278360  38.9115870  59.7463010  27.6280600  40.2499440
  55.2827090  28.4099860  50.2280500  55.2542520  28.8142810  49.3608930
  55.1192060  27.4810220  50.0652100  65.2797880  13.7000770  33.6720280
  64.9670540  13.7927600  34.5719350  66.0410350  14.2781800  33.6217710
  51.7980020  21.0660570  38.1297620  51.6777620  21.7922660  37.5178890
  51.4880910  20.2963480  37.6525530  67.2341910  29.1926960  51.5244670
  67.7101630  29.6709850  52.2033750  67.8549070  29.1244450  50.7990170
  50.6813020  25.9375900  40.3472440  50.2741100  26.0790490  39.4926040
  51.5726030  25.6536060  40.1443650  66.6375160  26.3839810  48.6844680
  66.7638220  26.1451690  47.7661860  66.6796540  25.5524350  49.1566760
  60.4991900  30.0867810  47.2539490  61.0136570  29.9975820  48.0561920
  59.6560980  30.4327510  47.5467400  62.4746300  30.3723150  36.6823490
  62.3147440  30.0826090  37.5805320  62.3093010  29.5963280  36.1468720
  62.1772430  27.8810710  35.2421490  61.4837590  27.8788000  34.5823770
  62.9195290  27.4570030  34.8115660  61.7422360  29.5073420  39.3169980
  62.1979310  28.7262800  39.6308600  62.0814880  30.2180240  39.8611160
  66.4899170  18.4372270  49.6494420  65.8743440  18.9451940  49.1209880
  66.1695590  17.5370600  49.5920360  54.2643680  14.4095640  41.5121290
  53.8211830  15.1905180  41.1805810  54.8228670  14.7325530  42.2192230
  58.5513490  17.2764160  47.1156610  58.0892860  17.4847180  47.9276550
  58.1491600  16.4623510  46.8127280  63.5518000  18.4973110  48.2453270
  62.7011590  18.1978860  48.5662340  63.3919790  18.7415120  47.3337090
  60.6467710  19.9974860  50.3452060  60.9721120  19.1638610  50.0054290
  61.4348040  20.5203380  50.4930390  57.3802500  14.0306340  36.3927120
  56.7556680  14.0266210  37.1180430  57.2932620  13.1637300  35.9963090
  56.3019580  14.9542970  43.3710890  56.5991910  15.8605800  43.2902910
  56.8505140  14.4661750  42.7570460  54.0557900  19.5329210  39.2402540
  53.8298820  19.3166380  40.1449160  53.2750430  19.9657670  38.8948510
  61.2855660  19.5392580  37.8393190  60.6864550  20.2628380  37.6556810
  61.8335270  19.4769360  37.0569640  56.4957110  20.4314790  49.9062810
  56.4000710  19.4909520  49.7563210  57.3389090  20.6529860  49.5110880
  59.8920530  18.1756120  39.8696470  60.2850100  18.4928320  39.0565160
  60.2537380  17.2968000  39.9840990  51.6267650  16.8428460  48.0596590
  51.2331040  17.6903670  48.2669370  50.9386050  16.2054830  48.2505230
  58.2012700  16.9263430  51.1293330  57.5111020  16.7335630  51.7639420
  58.9445000  17.2098070  51.6617630  48.9284700  14.7656920  42.0926670
  48.6397750  15.3359780  42.8051650  49.6730460  14.2861370  42.4557900
  60.4775670  20.7661870  43.9647250  59.7456790  21.2748680  44.3137350
  60.0800010  19.9491850  43.6636030  56.9153060  17.4416070  42.3699740
  56.9189120  17.0006020  41.5204280  57.8104180  17.7633400  42.4771560
  52.7655440  17.3242560  41.3293950  52.4255490  17.8017790  42.0861000
  52.0032760  16.8707680  40.9695050  56.9773210  18.4428150  35.3606500
  57.0986030  18.4014630  36.3092320  56.5921720  19.3052300  35.2053230
  60.9401580  16.2195550  43.3770190  60.9574320  16.6704200  44.2212040
  60.6917160  15.3201190  43.5903630  55.9894710  20.7529290  34.7589800
  55.4211610  20.3047540  34.1325710  56.6983710  21.1122070  34.2254950
  64.3672330  13.6327730  49.2156570  64.6918100  12.9017390  49.7414550
  64.4028840  13.3141370  48.3137560  51.0663890  24.6541310  48.6356530
  50.6818680  24.0134980  49.2339490  51.3776080  25.3577430  49.2051260
  57.2161030  21.5017850  44.1165150  57.5831160  21.0276420  44.8626490
  57.0266090  22.3759420  44.4573490  50.0801520  16.2461540  40.2458620
  49.7948440  15.8817210  41.0837240  50.0180380  15.5142000  39.6321760
  55.0060400  20.5426490  46.4349360  54.7017470  21.4218470  46.6599720
  55.9606860  20.6026280  46.4706800  53.5342190  24.7487480  37.0316210
  52.7604450  24.2085100  36.8714930  54.2636820  24.2294090  36.6933970
  64.2930170  23.7452840  42.8242600  65.0129290  24.2408130  42.4338710
  64.0911990  23.0670730  42.1796470  59.7540110  15.1390800  36.9671990
  58.9404720  14.6403970  36.8917300  59.5602060  15.9789050  36.5508340
  59.6748970  23.8161900  48.7111600  59.6086280  22.8957570  48.4569190
  59.0454110  23.9137340  49.4256240  62.4688500  19.5110450  35.2634150
  63.3568120  19.8227680  35.0885490  62.4393590  18.6382700  34.8714730
  53.5779590  24.4167860  40.6695020  54.0958260  23.6136120  40.6151910
  53.1263610  24.3547000  41.5111850  58.4649090  25.6834140  35.9422320
  58.8064790  26.4276370  35.4465640  57.6361800  25.9965260  36.3047150
  51.0624130  21.3829230  47.5820720  50.7039070  22.0483080  48.1694060
  50.7678690  20.5512780  47.9533340  54.2637250  21.8413470  50.4660270
  53.9637390  21.9870650  49.5688090  55.0348490  21.2818760  50.3733660
  59.6065700  26.6382470  48.4615400  59.6210240  25.7063430  48.2434310
  58.8990800  26.7242230  49.1005170  64.7402770  20.8222290  34.7314010
  64.6566490  21.2536510  33.8810450  65.4596960  21.2820640  35.1640830
  65.8176910  23.2789810  47.8083980  65.0925100  23.8718590  47.6113370
  66.3452370  23.2713350  47.0097350  65.7690020  27.6764550  37.4596140
  65.1266180  27.0220170  37.7339860  65.3820680  28.0819640  36.6836810
  61.3476500  25.0049980  41.3067830  61.7000320  24.4078110  40.6469200
  60.4638830  24.6794210  41.4776080  57.4339780  25.7647670  38.7138240
  58.1210910  26.3116880  39.0945830  56.6472200  26.3088400  38.7487850
  56.7366990  22.7693700  38.3263600  57.1929770  23.5798950  38.5523790
  56.3855200  22.4516840  39.1582090  59.0399600  28.2800040  45.5555900
  59.6841820  28.4859420  46.2329320  59.4029040  27.5188440  45.1026750
  52.6378770  13.1131350  38.7986120  52.5093400  13.1049250  39.7471040
  51.8140790  13.4514440  38.4477130  60.3131680  26.2832390  44.2733350
  60.9553910  25.5825550  44.3865520  60.8381030  27.0630830  44.0930240
  64.1587400  26.5681010  33.9972490  63.9324980  25.8511450  34.5897130
  63.7683600  26.3193450  33.1594240  62.0869300  27.0827290  47.4769410
  62.4225540  27.6693980  48.1547330  61.1669640  26.9520000  47.7067200
  49.6372700  14.8722470  48.2592820  48.9231220  15.0719390  48.8645430
  50.0567740  14.0962040  48.6307620  63.7403650  24.4852950  35.6586650
  63.4525350  24.9465640  36.4464530  64.5355820  24.0250720  35.9270870
  57.9157880  27.1318620  50.6457470  57.5954750  26.4127860  51.1903160
  57.2416240  27.8073690  50.7193530  55.9572050  27.9779070  35.5890620
  55.9482150  28.7108760  34.9735130  55.0370410  27.7310650  35.6817580
  61.1311480  17.3644780  46.0094270  61.4992300  16.5439990  46.3373840
  60.2709680  17.4246670  46.4249920  64.4973510  16.3201720  36.8181830
  63.8686670  16.4247390  36.1040060  64.0025430  16.5398500  37.6075710
  58.9431650  28.0407310  34.2515810  59.0443630  27.8371300  33.3217790
  58.0433390  27.7865590  34.4563590  56.4657540  18.5987670  38.2339710
  55.7573690  19.0674010  38.6753320  56.7502020  17.9409680  38.8684900
  58.0913470  20.0184370  46.2332240  58.5898720  20.4930190  46.8984090
  58.2336420  19.0947890  46.4402270  60.4972970  15.3238330  39.6735500
  60.3740750  15.3424460  38.7245010  61.4457530  15.3717270  39.7933900
  57.5849760  30.5593630  38.9463480  57.8391260  30.5215020  38.0242850
  56.6362240  30.4326960  38.9391730  54.6692560  16.9072750  35.6090420
  55.5183090  17.3442900  35.5430610  54.3023830  17.2193010  36.4362480
  65.2980330  16.2352330  47.0760630  64.7953930  16.9757730  47.4154440
  66.1136990  16.6236330  46.7597420  63.5902340  21.4785510  40.5221990
  62.6492480  21.4935740  40.6969680  63.9046410  20.6921470  40.9682290
  53.5683980  23.1605110  34.0825950  54.3347250  23.0486470  34.6451380
  53.6458670  22.4643080  33.4302720  52.2630740  20.5930180  34.7658840
  52.3434330  19.6457690  34.8776240  53.1550490  20.9237060  34.8719500
  65.5927920  28.6494360  42.1976250  65.7175340  29.4725530  42.6700060
  66.4593480  28.4385090  41.8500400  56.1747760  29.9155880  33.6918950
  56.9676370  30.2044710  33.2400740  55.6552110  29.4848050  33.0131430
  60.9068360  26.0351510  51.0054370  60.3006520  26.0583110  50.2650120
  60.6022470  25.3034550  51.5421620  62.3368730  29.7631800  49.6163780
  63.2890480  29.6789820  49.5664020  62.1896950  30.4273510  50.2897570
  65.2277930  29.1426010  35.1155690  64.9419440  28.7291150  34.3009870
  65.0297480  30.0713720  34.9956210  49.7901540  22.4145100  50.0015010
  50.2940560  21.8352380  50.5731240  49.0508960  22.6985330  50.5391380
  56.6925160  25.1359290  33.5561300  56.5875800  24.5211640  34.2822680
  56.5249380  24.6125180  32.7724310  56.8439480  23.8216090  49.5350530
  56.0785150  24.3901090  49.4505200  57.0255440  23.5292300  48.6418760
  59.9327890  24.1979320  34.1603290  59.3837990  24.6448620  34.8046030
  60.5547150  23.6928570  34.6840960  63.9862830  25.5521420  50.0925550
  64.7272300  25.8897180  49.5893010  63.2235510  25.7213480  49.5395320
  51.8224620  20.5574690  50.8965080  51.8629960  20.2588560  51.8050310
  52.6770120  20.9582300  50.7372600  55.6003010  23.1570240  36.0568590
  56.0219430  22.9910110  36.8999980  55.7253850  22.3470470  35.5623730
  53.7630430  19.1366790  48.8639570  53.2326890  18.6457740  48.2362910
  54.4318500  19.5650990  48.3297500  58.1130650  22.1807850  33.3045690
  58.6336310  21.4656870  32.9386840  58.7599050  22.8193720  33.6046200
  62.6608490  23.6036250  48.6280760  63.0749510  23.7581330  49.4771180
  61.7259490  23.7291470  48.7906540  63.1330660  20.9432410  50.6319910
  63.7151430  20.1884730  50.5440390  63.3092430  21.4739850  49.8551390
  54.2502730  16.1029160  48.9436860  54.1559600  15.4849910  48.2187730
  53.6700120  16.8295450  48.7166770  57.0164170  14.6602400  45.9764250
  56.5681470  14.6826660  45.1309800  56.3829370  14.2621420  46.5734550
  57.4223720  23.5556730  46.5976690  57.8411830  24.3989460  46.4252930
  56.5032350  23.6928770  46.3683470  59.7587620  21.2872910  47.9814530
  59.8783830  20.6914050  48.7209370  60.6181620  21.3242600  47.5615830
  62.0975520  21.8410100  46.5577040  61.5710740  22.3652720  45.9542180
  62.4406860  22.4737490  47.1886770  54.4961910  19.2303470  33.0026750
  54.2950970  18.3670830  33.3640090  54.3253960  19.1436830  32.0648350
  55.2731140  29.8609740  47.7134420  54.7352230  30.5855800  47.3943120
  55.5265100  29.3840080  46.9231760  56.5256390  17.8294260  49.2390350
  57.1156080  17.5210110  49.9268170  55.7076630  17.3574010  49.3950250
  61.3449820  17.4460070  49.4723370  60.6565340  16.7841610  49.4073360
  62.0655840  16.9998340  49.9171830  61.9750220  14.0411700  35.5313630
  62.2552510  13.1979600  35.8873050  61.2015950  14.2734810  36.0452380
  53.2944710  16.3304090  32.9904630  53.5970610  16.3371520  32.0823780
  54.0339300  15.9801950  33.4872290  56.5129640  15.2738710  33.9760830
  56.1651640  14.5962700  33.3963280  56.7142410  14.8128220  34.7904220
  58.6778680  30.2619460  35.5947430  59.5729470  30.6004430  35.6166190
  58.7096310  29.5398870  34.9671710  54.1282560  26.7544550  38.9356660
  53.8278100  26.6309520  39.8360570  54.0220050  25.8953140  38.5272390
  65.6573030  28.7923130  48.3013630  65.0575020  28.8515690  47.5577550
  65.7866930  27.8528110  48.4310480  66.8974480  26.5340950  33.6383340
  66.0667440  26.6017600  34.1090570  67.0746310  27.4245070  33.3350200
  66.3530940  23.2788430  36.1417540  67.1149850  23.8485080  36.2477230
  66.3685310  22.7115630  36.9125850  67.3590910  24.1338530  40.9859470
  67.7299740  23.3505850  40.5795440  67.9992840  24.8227630  40.8076770
  64.3424670  25.5175110  46.3989790  63.5284510  25.9472270  46.6615580
  64.7498870  26.1293520  45.7858840  66.4050110  23.5722800  33.2990060
  66.6798950  24.4801680  33.1709280  66.2160850  23.5085330  34.2352050
  62.8025720  16.5967650  34.5943690  63.2210600  16.4098630  33.7540350
  62.4961780  15.7446700  34.9046620  66.3015450  21.5091790  38.2919490
  65.9259050  20.7419720  37.8600780  65.5718570  21.8914490  38.7794420
  50.8911210  22.1878930  44.9128540  51.2584250  22.1006330  45.7924560
  50.3222030  21.4245480  44.8135400  65.6915070  20.6563310  47.9259010
  65.4601160  20.4276060  47.0256960  65.9519620  21.5762860  47.8803900
  50.4427210  19.0988020  48.8186960  49.5483260  19.0654780  49.1580670
  50.9824760  19.2974810  49.5838210  64.1303140  15.8819740  50.7038710
  65.0073320  15.8903140  51.0872710  64.1423980  15.1450580  50.0931060
  49.0673360  19.0125290  36.3150530  48.1637440  19.2755490  36.1402190
  49.5513980  19.2836460  35.5350490  65.5766410  19.7349280  41.5926730
  66.1003890  19.2411930  40.9616900  66.1625830  19.8699640  42.3374300
  65.7556130  19.8189150  45.1146280  64.8058840  19.7852690  45.2291270
  65.9369140  20.7289260  44.8796050  51.6100570  18.0690830  34.2244910
  52.3192270  17.6474050  33.7392190  50.8940510  18.1366060  33.5928260
  51.2574730  14.1230160  33.2647560  51.9802860  14.6639100  33.5828780
  51.5299250  13.8493580  32.3889100  65.0666380  18.9922630  37.5319140
  65.5625500  18.7593500  38.3168020  64.8682450  18.1534470  37.1156780
  50.9466920  13.3736350  43.1670180  51.5943110  12.8233730  42.7265340
  51.3668760  13.6279500  43.9885990  66.4953540  17.6283580  40.0656820
  66.3852820  17.4739620  41.0039090  67.2561130  17.1004520  39.8232230
  64.8419260  13.5677710  46.5239820  65.4791480  14.1811850  46.8899010
  64.9894150  13.6038370  45.5789050  67.3843810  15.4591500  33.3062960
  68.3093120  15.3272680  33.0981250  67.3619600  15.5384320  34.2599410
  67.4582300  16.2302160  35.9319670  66.6633800  16.1647280  36.4612580
  67.6625580  17.1652800  35.9205020  64.4000720  30.2693710  39.9258060
  64.9959790  29.9478280  39.2492480  64.6578870  29.7965530  40.7171330
  50.6998920  13.5292020  45.9095500  50.3513740  13.9855840  46.6753680
  50.3686620  12.6349150  45.9917930  52.3063290  26.7011620  50.0748690
  52.2632920  26.3304530  50.9563150  52.4374300  27.6389190  50.2150510
  56.0069320  28.2571210  45.6758410  55.7660680  28.5245770  44.7888930
  56.9471960  28.4276940  45.7309270  58.2123740  14.7203900  49.4314920
  58.1512630  15.3125730  50.1810330  59.1524120  14.6129860  49.2865180
  60.8498300  14.3773960  49.0707210  61.4638710  14.6953250  48.4088290
  61.3947860  13.8922550  49.6903070  67.2673480  30.2765590  46.4769050
  66.7731760  30.6734460  45.7596180  66.6586770  29.6514800  46.8706330
  51.3719560  13.0568220  49.1846270  51.9202550  12.8756270  48.4212380
  51.4374870  12.2662330  49.7202580  61.5906340  12.9406100  45.3976500
  60.7166180  13.2741210  45.1949430  61.4817090  12.4679280  46.2228370
  62.4978320  15.1476970  46.7818220  62.1691680  14.3328730  46.4019950
  63.4460620  15.1046780  46.6583910  64.9512930  30.9189010  43.7555790
  64.4915900  31.6704820  43.3813810  64.3225390  30.1995480  43.6970590
  51.7763550  27.0132250  46.1454510  51.0497610  26.3937540  46.0780460
  51.8372700  27.4072860  45.2752590  55.3808650  29.2277250  42.9303920
  55.8973670  28.6164610  42.4052180  56.0306030  29.7306030  43.4214930
  58.1204150  30.1185740  43.7572900  58.4081960  29.8640040  42.8805910
  58.6327370  29.5663100  44.3478470  59.3381160  13.8575940  44.3369410
  58.5552950  14.3321440  44.6166170  59.0444090  12.9530770  44.2282590
  63.8902230  14.5599040  42.3818500  64.3310320  14.5044140  41.5340100
  63.6209820  15.4757050  42.4528680  65.7540800  14.1914280  40.3927320
  65.6929200  13.2475500  40.2458340  66.5332830  14.2994370  40.9380780
  50.6821570  14.1623420  36.8583130  51.4400930  14.2752300  36.2847160
  50.2198740  14.9992620  36.8126560  57.2235380  16.2762690  39.8485440
  56.4109890  15.9019580  39.5081320  57.7277020  15.5207770  40.1506630
  61.7260360  12.9405140  41.0868510  62.3289730  13.5125350  41.5617030
  60.9853350  13.5044580  40.8642410  64.8694960  13.3426700  36.3608790
  65.0645590  14.2410150  36.6276220  64.0824830  13.1113780  36.8541740
  53.0546720  14.6887470  35.3985100  53.5839480  13.9017270  35.2693050
  53.6875040  15.3678660  35.6320630  55.2484560  14.4262610  38.4530490
  54.6187300  13.7249920  38.6200620  54.7089700  15.1866740  38.2363650
  66.4221570  30.5827410  38.1215350  66.5973760  29.8965150  37.4776270
  65.7243140  31.1074460  37.7292020  55.3740120  13.7046590  50.8882980
  55.0924390  14.2080190  50.1243800  55.7559820  12.9068340  50.5225110
  54.2649220  30.9722250  35.6750660  54.9968040  30.6881530  35.1274550
  54.5242890  30.7335530  36.5650040  53.4264010  27.0886980  35.6796990
  52.7972890  27.5572080  36.2282820  53.5411840  26.2436200  36.1143180
  61.9755580  13.1200170  51.4663450  61.8621030  13.4394780  52.3614970
  62.7925320  13.5212680  51.1700730  64.7554070  30.2671700  50.9482140
  65.5479390  29.7720930  50.7408100  65.0487220  30.9461840  51.5557750
  60.8813730  21.1392640  21.8298190  60.8007780  20.2247250  21.5589900
  60.4678150  21.6359710  21.1237900  59.0131770  22.9171660  23.7107460
  58.2373870  22.4372100  24.0006030  59.6644700  22.2377310  23.5363620
  53.0297600  23.2291470  24.5883220  52.1982480  22.9740180  24.9879730
  53.6378580  23.3002240  25.3241140  63.0339200  27.3231850  22.4906590
  62.5720730  26.5519090  22.8193760  63.8464750  27.3497920  22.9959040
  53.0098860  27.2631560  24.7841240  53.3126900  26.3729300  24.6051460
  53.7542450  27.8201780  24.5563490  51.4389550  18.1893360  18.3725610
  50.5506250  18.5309330  18.2705490  51.7230740  17.9893680  17.4806440
  49.4022560  20.7899010  24.2565310  49.9738670  20.0221210  24.2568950
  49.4024100  21.0887770  23.3471920  59.2602510  29.6089860  22.1110580
  58.6413950  30.0647360  21.5405020  60.1154290  29.7641320  21.7100280
  58.4540760  25.5928850  23.7177620  58.3849040  24.6518790  23.5566750
  59.2160620  25.6830260  24.2900190  50.6447430  16.1983370  26.0434240
  50.4650270  15.3009120  26.3237000  50.2427510  16.7455240  26.7181190
  59.4845930  18.3999230  23.9446550  59.8610750  17.5271110  23.8320220
  59.3865440  18.7357930  23.0536990  53.6150940  16.7724860  19.4063990
  53.7217690  17.6728590  19.7132750  52.7043300  16.7242830  19.1158640
  63.2670050  15.8949670  20.8774890  64.0879670  15.4046240  20.9200370
  63.3004130  16.4847330  21.6306730  51.2634100  18.6943870  24.6516580
  51.9444210  18.9582240  25.2703980  50.9482150  17.8544740  24.9854590
  55.4558670  19.7411230  23.7389170  55.9636890  20.2392200  24.3794190
  55.9871910  18.9646430  23.5628530  67.5569600  17.9116420  27.4418520
  66.8521770  18.2998130  26.9233630  67.8227520  18.6066710  28.0439450
  53.7394770  14.3809790  28.0052590  53.7413210  14.8982180  27.1998490
  52.9099080  13.9039970  27.9822520  60.1265860  24.4929100  19.5042490
  59.5083130  24.9578550  18.9405210  60.6389110  25.1856580  19.9212000
  54.9897620  24.0204970  26.1826090  54.6567000  24.6473890  26.8247160
  55.1664300  24.5466850  25.4027760  63.5031530  17.8350050  23.6502430
  62.7987100  18.1234940  24.2305540  63.8643690  18.6450160  23.2901990
  53.4210100  16.0919750  26.0123040  53.7626910  16.9361800  25.7176910
  52.4825910  16.2403490  26.1288380  54.2016720  25.9885770  27.9975270
  54.8190720  26.6636850  27.7159720  53.3409840  26.3973750  27.9062770
  49.4949060  25.1785630  16.8782120  49.1177040  25.6672730  16.1467020
  49.7522130  25.8510910  17.5088650  65.1194310  27.4525180  25.9129910
  64.4357830  28.1224290  25.9046580  65.6588600  27.6505830  25.1474770
  66.5718450  17.2804840  24.0411640  65.6243360  17.3143820  24.1727070
  66.8968440  18.0943790  24.4261000  57.1037990  13.5802020  22.3367630
  57.4112970  13.0248910  21.6203130  56.1738690  13.7146480  22.1540620
  62.6553050  29.2969310  24.6275090  62.6680210  28.8931600  23.7597350
  62.1028270  30.0716600  24.5236520  63.9498470  26.0185530  19.7165260
  63.8394800  25.0759860  19.8414680  63.9466720  26.3801170  20.6028020
  62.0538490  24.1999150  25.9557700  62.4707280  23.9859260  25.1211160
  62.7778310  24.4571940  26.5266320  59.4918750  21.6450850  19.0727750
  58.5648030  21.5788230  19.3016220  59.6443570  22.5830980  18.9582990
  59.4787830  17.9167850  16.0694910  58.5391500  18.0781810  16.1547370
  59.7971090  18.6353530  15.5230900  66.0000590  22.5986370  26.0473940
  65.1719220  22.6679460  25.5724070  66.5951070  23.1840680  25.5789770
  63.5216040  23.2071150  19.5763000  62.9028460  22.8690700  18.9289300
  63.5040490  22.5630910  20.2842190  62.9642600  19.3855690  26.9928810
  62.5513780  20.2109400  27.2468800  62.2318550  18.8000730  26.8005170
  55.0975390  22.1715590  21.8547480  54.6932390  21.4592840  21.3593380
  55.1838510  21.8268830  22.7435520  55.5657090  25.8583150  24.0186690
  55.2685380  25.2528620  23.3394470  56.5156910  25.8960460  23.9076050
  53.8104010  18.9458800  25.6346520  54.3618600  19.0554140  24.8599770
  54.3247520  19.3196400  26.3501750  63.6542700  29.4315020  27.6809790
  63.1773260  30.2387210  27.4882400  62.9704490  28.7793350  27.8336000
  54.6575520  25.5964840  30.6694490  53.7604050  25.8204810  30.9167890
  54.6828390  25.7199780  29.7205890  61.6980740  22.4457960  16.5835750
  62.1374020  21.6080390  16.4373570  62.4109160  23.0787360  16.6699890
  53.4846740  22.4678160  29.2451860  53.3454510  23.3400960  29.6139260
  52.6028100  22.1250970  29.0999800  59.8076120  27.3854030  20.5516990
  60.2472030  28.1278360  20.1372380  59.7463010  27.6280600  21.4755950
  55.2827090  28.4099860  31.4537010  55.2542520  28.8142810  30.5865440
  55.1192060  27.4810220  31.2908610  65.2797880  13.7000770  14.8976790
  64.9670540  13.7927600  15.7975860  66.0410350  14.2781800  14.8474220
  51.7980020  21.0660570  19.3554130  51.6777620  21.7922660  18.7435400
  51.4880910  20.2963480  18.8782040  67.2341910  29.1926960  32.7501180
  67.7101630  29.6709850  33.4290260  67.8549070  29.1244450  32.0246680
  49.4365390  24.2375710  25.1622770  49.5145810  24.3724480  24.2178490
  50.0507070  23.5291600  25.3550890  50.6813020  25.9375900  21.5728950
  50.2741100  26.0790490  20.7182550  51.5726030  25.6536060  21.3700160
  66.6375160  26.3839810  29.9101190  66.7638220  26.1451690  28.9918370
  66.6796540  25.5524350  30.3823270  60.4991900  30.0867810  28.4796000
  61.0136570  29.9975820  29.2818430  59.6560980  30.4327510  28.7723910
  62.4746300  30.3723150  17.9080000  62.3147440  30.0826090  18.8061830
  62.3093010  29.5963280  17.3725230  54.9534680  30.1521680  19.6851620
  54.7777160  29.2357220  19.4719420  54.0990420  30.5108970  19.9249420
  62.1772430  27.8810710  16.4678000  61.4837590  27.8788000  15.8080280
  62.9195290  27.4570030  16.0372170  61.7422360  29.5073420  20.5426490
  62.1979310  28.7262800  20.8565110  62.0814880  30.2180240  21.0867670
  66.4899170  18.4372270  30.8750930  65.8743440  18.9451940  30.3466390
  66.1695590  17.5370600  30.8176870  54.2643680  14.4095640  22.7377800
  53.8211830  15.1905180  22.4062320  54.8228670  14.7325530  23.4448740
  58.5513490  17.2764160  28.3413120  58.0892860  17.4847180  29.1533060
  58.1491600  16.4623510  28.0383790  63.5518000  18.4973110  29.4709780
  62.7011590  18.1978860  29.7918850  63.3919790  18.7415120  28.5593600
  60.6467710  19.9974860  31.5708570  60.9721120  19.1638610  31.2310800
  61.4348040  20.5203380  31.7186900  57.3802500  14.0306340  17.6183630
  56.7556680  14.0266210  18.3436940  57.2932620  13.1637300  17.2219600
  56.3019580  14.9542970  24.5967400  56.5991910  15.8605800  24.5159420
  56.8505140  14.4661750  23.9826970  54.0557900  19.5329210  20.4659050
  53.8298820  19.3166380  21.3705670  53.2750430  19.9657670  20.1205020
  61.2855660  19.5392580  19.0649700  60.6864550  20.2628380  18.8813320
  61.8335270  19.4769360  18.2826150  56.4957110  20.4314790  31.1319320
  56.4000710  19.4909520  30.9819720  57.3389090  20.6529860  30.7367390
  59.8920530  18.1756120  21.0952980  60.2850100  18.4928320  20.2821670
  60.2537380  17.2968000  21.2097500  51.6267650  16.8428460  29.2853100
  51.2331040  17.6903670  29.4925880  50.9386050  16.2054830  29.4761740
  58.2012700  16.9263430  32.3549840  57.5111020  16.7335630  32.9895930
  58.9445000  17.2098070  32.8874140  48.9284700  14.7656920  23.3183180
  48.6397750  15.3359780  24.0308160  49.6730460  14.2861370  23.6814410
  49.1154930  18.7077040  14.5285900  49.0329600  19.6507800  14.6700890
  48.7637990  18.5651950  13.6498250  60.4775670  20.7661870  25.1903760
  59.7456790  21.2748680  25.5393860  60.0800010  19.9491850  24.8892540
  56.9153060  17.4416070  23.5956250  56.9189120  17.0006020  22.7460790
  57.8104180  17.7633400  23.7028070  52.7655440  17.3242560  22.5550460
  52.4255490  17.8017790  23.3117510  52.0032760  16.8707680  22.1951560
  56.9773210  18.4428150  16.5863010  57.0986030  18.4014630  17.5348830
  56.5921720  19.3052300  16.4309740  60.9401580  16.2195550  24.6026700
  60.9574320  16.6704200  25.4468550  60.6917160  15.3201190  24.8160140
  55.9894710  20.7529290  15.9846310  55.4211610  20.3047540  15.3582220
  56.6983710  21.1122070  15.4511460  64.3672330  13.6327730  30.4413080
  64.6918100  12.9017390  30.9671060  64.4028840  13.3141370  29.5394070
  57.2161030  21.5017850  25.3421660  57.5831160  21.0276420  26.0883000
  57.0266090  22.3759420  25.6830000  50.0801520  16.2461540  21.4715130
  49.7948440  15.8817210  22.3093750  50.0180380  15.5142000  20.8578270
  55.0060400  20.5426490  27.6605870  54.7017470  21.4218470  27.8856230
  55.9606860  20.6026280  27.6963310  53.5342190  24.7487480  18.2572720
  52.7604450  24.2085100  18.0971440  54.2636820  24.2294090  17.9190480
  64.2930170  23.7452840  24.0499110  65.0129290  24.2408130  23.6595220
  64.0911990  23.0670730  23.4052980  59.7540110  15.1390800  18.1928500
  58.9404720  14.6403970  18.1173810  59.5602060  15.9789050  17.7764850
  59.6748970  23.8161900  29.9368110  59.6086280  22.8957570  29.6825700
  59.0454110  23.9137340  30.6512750  62.4688500  19.5110450  16.4890660
  63.3568120  19.8227680  16.3142000  62.4393590  18.6382700  16.0971240
  53.5779590  24.4167860  21.8951530  54.0958260  23.6136120  21.8408420
  53.1263610  24.3547000  22.7368360  58.4649090  25.6834140  17.1678830
  58.8064790  26.4276370  16.6722150  57.6361800  25.9965260  17.5303660
  51.0624130  21.3829230  28.8077230  50.7039070  22.0483080  29.3950570
  50.7678690  20.5512780  29.1789850  54.2637250  21.8413470  31.6916780
  53.9637390  21.9870650  30.7944600  55.0348490  21.2818760  31.5990170
  59.6065700  26.6382470  29.6871910  59.6210240  25.7063430  29.4690820
  58.8990800  26.7242230  30.3261680  64.7402770  20.8222290  15.9570520
  64.6566490  21.2536510  15.1066960  65.4596960  21.2820640  16.3897340
  65.8176910  23.2789810  29.0340490  65.0925100  23.8718590  28.8369880
  66.3452370  23.2713350  28.2353860  65.7690020  27.6764550  18.6852650
  65.1266180  27.0220170  18.9596370  65.3820680  28.0819640  17.9093320
  61.3476500  25.0049980  22.5324340  61.7000320  24.4078110  21.8725710
  60.4638830  24.6794210  22.7032590  57.4339780  25.7647670  19.9394750
  58.1210910  26.3116880  20.3202340  56.6472200  26.3088400  19.9744360
  49.5732180  21.3820490  15.4311830  50.4427030  21.6645290  15.7147750
  49.0822500  22.1956360  15.3160640  56.7366990  22.7693700  19.5520110
  57.1929770  23.5798950  19.7780300  56.3855200  22.4516840  20.3838600
  59.0399600  28.2800040  26.7812410  59.6841820  28.4859420  27.4585830
  59.4029040  27.5188440  26.3283260  52.6378770  13.1131350  20.0242630
  52.5093400  13.1049250  20.9727550  51.8140790  13.4514440  19.6733640
  60.3131680  26.2832390  25.4989860  60.9553910  25.5825550  25.6122030
  60.8381030  27.0630830  25.3186750  64.1587400  26.5681010  15.2229000
  63.9324980  25.8511450  15.8153640  63.7683600  26.3193450  14.3850750
  62.0869300  27.0827290  28.7025920  62.4225540  27.6693980  29.3803840
  61.1669640  26.9520000  28.9323710  49.9403430  30.5947870  15.9973460
  50.3001070  31.1937210  15.3430730  49.7995770  31.1407760  16.7708490
  49.6372700  14.8722470  29.4849330  48.9231220  15.0719390  30.0901940
  50.0567740  14.0962040  29.8564130  63.7403650  24.4852950  16.8843160
  63.4525350  24.9465640  17.6721040  64.5355820  24.0250720  17.1527380
  49.9245290  28.8602730  30.4715860  50.0336410  27.9197470  30.3311250
  49.2725850  29.1257480  29.8229590  57.9157880  27.1318620  31.8713980
  57.5954750  26.4127860  32.4159670  57.2416240  27.8073690  31.9450040
  55.9572050  27.9779070  16.8147130  55.9482150  28.7108760  16.1991640
  55.0370410  27.7310650  16.9074090  51.5578690  23.1993960  17.5593890
  50.9506640  23.9392860  17.5689190  52.0328040  23.2893320  16.7332090
  61.1311480  17.3644780  27.2350780  61.4992300  16.5439990  27.5630350
  60.2709680  17.4246670  27.6506430  64.4973510  16.3201720  18.0438340
  63.8686670  16.4247390  17.3296570  64.0025430  16.5398500  18.8332220
  58.9431650  28.0407310  15.4772320  59.0443630  27.8371300  14.5474300
  58.0433390  27.7865590  15.6820100  56.4657540  18.5987670  19.4596220
  55.7573690  19.0674010  19.9009830  56.7502020  17.9409680  20.0941410
  58.0913470  20.0184370  27.4588750  58.5898720  20.4930190  28.1240600
  58.2336420  19.0947890  27.6658780  60.4972970  15.3238330  20.8992010
  60.3740750  15.3424460  19.9501520  61.4457530  15.3717270  21.0190410
  57.5849760  30.5593630  20.1719990  57.8391260  30.5215020  19.2499360
  56.6362240  30.4326960  20.1648240  54.6692560  16.9072750  16.8346930
  55.5183090  17.3442900  16.7687120  54.3023830  17.2193010  17.6618990
  65.2980330  16.2352330  28.3017140  64.7953930  16.9757730  28.6410950
  66.1136990  16.6236330  27.9853930  63.5902340  21.4785510  21.7478500
  62.6492480  21.4935740  21.9226190  63.9046410  20.6921470  22.1938800
  53.5683980  23.1605110  15.3082460  54.3347250  23.0486470  15.8707890
  53.6458670  22.4643080  14.6559230  52.2630740  20.5930180  15.9915350
  52.3434330  19.6457690  16.1032750  53.1550490  20.9237060  16.0976010
  65.5927920  28.6494360  23.4232760  65.7175340  29.4725530  23.8956570
  66.4593480  28.4385090  23.0756910  49.9490930  26.8099140  18.9691400
  49.0230710  27.0520280  18.9596810  50.4147360  27.6373400  18.8476150
  52.0703730  29.9271640  32.2835470  52.8716460  30.2483690  32.6970870
  51.5555550  29.5667220  33.0055380  56.1747760  29.9155880  14.9175460
  56.9676370  30.2044710  14.4657250  55.6552110  29.4848050  14.2387940
  60.9068360  26.0351510  32.2310880  60.3006520  26.0583110  31.4906630
  60.6022470  25.3034550  32.7678130  62.3368730  29.7631800  30.8420290
  63.2890480  29.6789820  30.7920530  62.1896950  30.4273510  31.5154080
  65.2277930  29.1426010  16.3412200  64.9419440  28.7291150  15.5266380
  65.0297480  30.0713720  16.2212720  56.6925160  25.1359290  14.7817810
  56.5875800  24.5211640  15.5079190  56.5249380  24.6125180  13.9980820
  56.8439480  23.8216090  30.7607040  56.0785150  24.3901090  30.6761710
  57.0255440  23.5292300  29.8675270  59.9327890  24.1979320  15.3859800
  59.3837990  24.6448620  16.0302540  60.5547150  23.6928570  15.9097470
  63.9862830  25.5521420  31.3182060  64.7272300  25.8897180  30.8149520
  63.2235510  25.7213480  30.7651830  51.8224620  20.5574690  32.1221590
  51.8629960  20.2588560  33.0306820  52.6770120  20.9582300  31.9629110
  55.6003010  23.1570240  17.2825100  56.0219430  22.9910110  18.1256490
  55.7253850  22.3470470  16.7880240  53.7630430  19.1366790  30.0896080
  53.2326890  18.6457740  29.4619420  54.4318500  19.5650990  29.5554010
  58.1130650  22.1807850  14.5302200  58.6336310  21.4656870  14.1643350
  58.7599050  22.8193720  14.8302710  62.6608490  23.6036250  29.8537270
  63.0749510  23.7581330  30.7027690  61.7259490  23.7291470  30.0163050
  63.1330660  20.9432410  31.8576420  63.7151430  20.1884730  31.7696900
  63.3092430  21.4739850  31.0807900  54.2502730  16.1029160  30.1693370
  54.1559600  15.4849910  29.4444240  53.6700120  16.8295450  29.9423280
  57.0164170  14.6602400  27.2020760  56.5681470  14.6826660  26.3566310
  56.3829370  14.2621420  27.7991060  57.4223720  23.5556730  27.8233200
  57.8411830  24.3989460  27.6509440  56.5032350  23.6928770  27.5939980
  59.7587620  21.2872910  29.2071040  59.8783830  20.6914050  29.9465880
  60.6181620  21.3242600  28.7872340  62.0975520  21.8410100  27.7833550
  61.5710740  22.3652720  27.1798690  62.4406860  22.4737490  28.4143280
  54.4961910  19.2303470  14.2283260  54.2950970  18.3670830  14.5896600
  54.3253960  19.1436830  13.2904860  55.2731140  29.8609740  28.9390930
  54.7352230  30.5855800  28.6199630  55.5265100  29.3840080  28.1488270
  56.5256390  17.8294260  30.4646860  57.1156080  17.5210110  31.1524680
  55.7076630  17.3574010  30.6206760  61.3449820  17.4460070  30.6979880
  60.6565340  16.7841610  30.6329870  62.0655840  16.9998340  31.1428340
  61.9750220  14.0411700  16.7570140  62.2552510  13.1979600  17.1129560
  61.2015950  14.2734810  17.2708890  53.2944710  16.3304090  14.2161140
  53.5970610  16.3371520  13.3080290  54.0339300  15.9801950  14.7128800
  58.1293350  31.0960950  29.1977580  58.0552050  31.9996090  29.5049950
  57.2272190  30.7772850  29.1699650  56.5129640  15.2738710  15.2017340
  56.1651640  14.5962700  14.6219790  56.7142410  14.8128220  16.0160730
  58.6778680  30.2619460  16.8203940  59.5729470  30.6004430  16.8422700
  58.7096310  29.5398870  16.1928220  52.3174840  25.6346510  15.0490940
  52.7549710  26.1776180  15.7048520  52.8022570  24.8093460  15.0587280
  49.5320640  28.4235540  22.5011200  49.8623650  27.5556600  22.2689840
  49.9611640  28.6294060  23.3316160  54.1282560  26.7544550  20.1613170
  53.8278100  26.6309520  21.0617080  54.0220050  25.8953140  19.7528900
  65.6573030  28.7923130  29.5270140  65.0575020  28.8515690  28.7834060
  65.7866930  27.8528110  29.6566990  66.8974480  26.5340950  14.8639850
  66.0667440  26.6017600  15.3347080  67.0746310  27.4245070  14.5606710
  66.3530940  23.2788430  17.3674050  67.1149850  23.8485080  17.4733740
  66.3685310  22.7115630  18.1382360  49.8535280  21.8026360  21.5981710
  49.1984120  21.5338000  20.9541410  50.6913230  21.6930840  21.1483690
  67.3590910  24.1338530  22.2115980  67.7299740  23.3505850  21.8051950
  67.9992840  24.8227630  22.0333280  64.3424670  25.5175110  27.6246300
  63.5284510  25.9472270  27.8872090  64.7498870  26.1293520  27.0115350
  66.4050110  23.5722800  14.5246570  66.6798950  24.4801680  14.3965790
  66.2160850  23.5085330  15.4608560  62.8025720  16.5967650  15.8200200
  63.2210600  16.4098630  14.9796860  62.4961780  15.7446700  16.1303130
  66.3015450  21.5091790  19.5176000  65.9259050  20.7419720  19.0857290
  65.5718570  21.8914490  20.0050930  50.8911210  22.1878930  26.1385050
  51.2584250  22.1006330  27.0181070  50.3222030  21.4245480  26.0391910
  65.6915070  20.6563310  29.1515520  65.4601160  20.4276060  28.2513470
  65.9519620  21.5762860  29.1060410  50.4427210  19.0988020  30.0443470
  49.5483260  19.0654780  30.3837180  50.9824760  19.2974810  30.8094720
  64.1303140  15.8819740  31.9295220  65.0073320  15.8903140  32.3129220
  64.1423980  15.1450580  31.3187570  49.0673360  19.0125290  17.5407040
  48.1637440  19.2755490  17.3658700  49.5513980  19.2836460  16.7607000
  65.5766410  19.7349280  22.8183240  66.1003890  19.2411930  22.1873410
  66.1625830  19.8699640  23.5630810  65.7556130  19.8189150  26.3402790
  64.8058840  19.7852690  26.4547780  65.9369140  20.7289260  26.1052560
  51.6100570  18.0690830  15.4501420  52.3192270  17.6474050  14.9648700
  50.8940510  18.1366060  14.8184770  51.2574730  14.1230160  14.4904070
  51.9802860  14.6639100  14.8085290  51.5299250  13.8493580  13.6145610
  65.0666380  18.9922630  18.7575650  65.5625500  18.7593500  19.5424530
  64.8682450  18.1534470  18.3413290  50.9466920  13.3736350  24.3926690
  51.5943110  12.8233730  23.9521850  51.3668760  13.6279500  25.2142500
  66.4953540  17.6283580  21.2913330  66.3852820  17.4739620  22.2295600
  67.2561130  17.1004520  21.0488740  64.8419260  13.5677710  27.7496330
  65.4791480  14.1811850  28.1155520  64.9894150  13.6038370  26.8045560
  67.3843810  15.4591500  14.5319470  68.3093120  15.3272680  14.3237760
  67.3619600  15.5384320  15.4855920  67.4582300  16.2302160  17.1576180
  66.6633800  16.1647280  17.6869090  67.6625580  17.1652800  17.1461530
  64.4000720  30.2693710  21.1514570  64.9959790  29.9478280  20.4748990
  64.6578870  29.7965530  21.9427840  50.6998920  13.5292020  27.1352010
  50.3513740  13.9855840  27.9010190  50.3686620  12.6349150  27.2174440
  56.0069320  28.2571210  26.9014920  55.7660680  28.5245770  26.0145440
  56.9471960  28.4276940  26.9565780  58.2123740  14.7203900  30.6571430
  58.1512630  15.3125730  31.4066840  59.1524120  14.6129860  30.5121690
  60.8498300  14.3773960  30.2963720  61.4638710  14.6953250  29.6344800
  61.3947860  13.8922550  30.9159580  67.2673480  30.2765590  27.7025560
  66.7731760  30.6734460  26.9852690  66.6586770  29.6514800  28.0962840
  51.3719560  13.0568220  30.4102780  51.9202550  12.8756270  29.6468890
  51.4374870  12.2662330  30.9459090  52.1451320  29.6473870  28.4202980
  51.5511640  29.5158570  29.1593020  52.1375160  28.8112010  27.9545080
  61.5906340  12.9406100  26.6233010  60.7166180  13.2741210  26.4205940
  61.4817090  12.4679280  27.4484880  62.4978320  15.1476970  28.0074730
  62.1691680  14.3328730  27.6276460  63.4460620  15.1046780  27.8840420
  64.9512930  30.9189010  24.9812300  64.4915900  31.6704820  24.6070320
  64.3225390  30.1995480  24.9227100  51.7763550  27.0132250  27.3711020
  51.0497610  26.3937540  27.3036970  51.8372700  27.4072860  26.5009100
  55.3808650  29.2277250  24.1560430  55.8973670  28.6164610  23.6308690
  56.0306030  29.7306030  24.6471440  58.1204150  30.1185740  24.9829410
  58.4081960  29.8640040  24.1062420  58.6327370  29.5663100  25.5734980
  59.3381160  13.8575940  25.5625920  58.5552950  14.3321440  25.8422680
  59.0444090  12.9530770  25.4539100  63.8902230  14.5599040  23.6075010
  64.3310320  14.5044140  22.7596610  63.6209820  15.4757050  23.6785190
  65.7540800  14.1914280  21.6183830  65.6929200  13.2475500  21.4714850
  66.5332830  14.2994370  22.1637290  50.6821570  14.1623420  18.0839640
  51.4400930  14.2752300  17.5103670  50.2198740  14.9992620  18.0383070
  57.2235380  16.2762690  21.0741950  56.4109890  15.9019580  20.7337830
  57.7277020  15.5207770  21.3763140  61.7260360  12.9405140  22.3125020
  62.3289730  13.5125350  22.7873540  60.9853350  13.5044580  22.0898920
  64.8694960  13.3426700  17.5865300  65.0645590  14.2410150  17.8532730
  64.0824830  13.1113780  18.0798250  51.6656250  29.0239870  18.0257920
  51.1403870  29.4047900  17.3219880  51.5900830  29.6490640  18.7467630
  53.0546720  14.6887470  16.6241610  53.5839480  13.9017270  16.4949560
  53.6875040  15.3678660  16.8577140  55.2484560  14.4262610  19.6787000
  54.6187300  13.7249920  19.8457130  54.7089700  15.1866740  19.4620160
  58.1876510  31.0401840  32.3497610  59.1143820  30.8046110  32.3933570
  58.1726940  31.8673840  31.8683640  66.4221570  30.5827410  19.3471860
  66.5973760  29.8965150  18.7032780  65.7243140  31.1074460  18.9548530
  55.3740120  13.7046590  32.1139490  55.0924390  14.2080190  31.3500310
  55.7559820  12.9068340  31.7481620  54.2649220  30.9722250  16.9007170
  54.9968040  30.6881530  16.3531060  54.5242890  30.7335530  17.7906550
  53.4264010  27.0886980  16.9053500  52.7972890  27.5572080  17.4539330
  53.5411840  26.2436200  17.3399690  61.9755580  13.1200170  32.6919960
  61.8621030  13.4394780  33.5871480  62.7925320  13.5212680  32.3957240
  64.7554070  30.2671700  32.1738650  65.5479390  29.7720930  31.9664610
  65.0487220  30.9461840  32.7814260  60.8813730  21.1392640   3.0554700
  60.8007780  20.2247250   2.7846410  60.4678150  21.6359710   2.3494410
  59.0131770  22.9171660   4.9363970  58.2373870  22.4372100   5.2262540
  59.6644700  22.2377310   4.7620130  53.0297600  23.2291470   5.8139730
  52.1982480  22.9740180   6.2136240  53.6378580  23.3002240   6.5497650
  63.0339200  27.3231850   3.7163100  62.5720730  26.5519090   4.0450270
  63.8464750  27.3497920   4.2215550  53.0098860  27.2631560   6.0097750
  53.3126900  26.3729300   5.8307970  53.7542450  27.8201780   5.7820000
  49.4022560  20.7899010   5.4821820  49.9738670  20.0221210   5.4825460
  49.4024100  21.0887770   4.5728430  59.2602510  29.6089860   3.3367090
  58.6413950  30.0647360   2.7661530  60.1154290  29.7641320   2.9356790
  58.4540760  25.5928850   4.9434130  58.3849040  24.6518790   4.7823260
  59.2160620  25.6830260   5.5156700  50.6447430  16.1983370   7.2690750
  50.4650270  15.3009120   7.5493510  50.2427510  16.7455240   7.9437700
  59.4845930  18.3999230   5.1703060  59.8610750  17.5271110   5.0576730
  59.3865440  18.7357930   4.2793500  63.2670050  15.8949670   2.1031400
  64.0879670  15.4046240   2.1456880  63.3004130  16.4847330   2.8563240
  51.2634100  18.6943870   5.8773090  51.9444210  18.9582240   6.4960490
  50.9482150  17.8544740   6.2111100  55.4558670  19.7411230   4.9645680
  55.9636890  20.2392200   5.6050700  55.9871910  18.9646430   4.7885040
  67.5569600  17.9116420   8.6675030  66.8521770  18.2998130   8.1490140
  67.8227520  18.6066710   9.2695960  53.7394770  14.3809790   9.2309100
  53.7413210  14.8982180   8.4255000  52.9099080  13.9039970   9.2079030
  54.9897620  24.0204970   7.4082600  54.6567000  24.6473890   8.0503670
  55.1664300  24.5466850   6.6284270  63.5031530  17.8350050   4.8758940
  62.7987100  18.1234940   5.4562050  63.8643690  18.6450160   4.5158500
  53.4210100  16.0919750   7.2379550  53.7626910  16.9361800   6.9433420
  52.4825910  16.2403490   7.3544890  54.2016720  25.9885770   9.2231780
  54.8190720  26.6636850   8.9416230  53.3409840  26.3973750   9.1319280
  65.1194310  27.4525180   7.1386420  64.4357830  28.1224290   7.1303090
  65.6588600  27.6505830   6.3731280  66.5718450  17.2804840   5.2668150
  65.6243360  17.3143820   5.3983580  66.8968440  18.0943790   5.6517510
  57.1037990  13.5802020   3.5624140  57.4112970  13.0248910   2.8459640
  56.1738690  13.7146480   3.3797130  62.6553050  29.2969310   5.8531600
  62.6680210  28.8931600   4.9853860  62.1028270  30.0716600   5.7493030
  62.0538490  24.1999150   7.1814210  62.4707280  23.9859260   6.3467670
  62.7778310  24.4571940   7.7522830  66.0000590  22.5986370   7.2730450
  65.1719220  22.6679460   6.7980580  66.5951070  23.1840680   6.8046280
  62.9642600  19.3855690   8.2185320  62.5513780  20.2109400   8.4725310
  62.2318550  18.8000730   8.0261680  55.0975390  22.1715590   3.0803990
  54.6932390  21.4592840   2.5849890  55.1838510  21.8268830   3.9692030
  55.5657090  25.8583150   5.2443200  55.2685380  25.2528620   4.5650980
  56.5156910  25.8960460   5.1332560  53.8104010  18.9458800   6.8603030
  54.3618600  19.0554140   6.0856280  54.3247520  19.3196400   7.5758260
  63.6542700  29.4315020   8.9066300  63.1773260  30.2387210   8.7138910
  62.9704490  28.7793350   9.0592510  54.6575520  25.5964840  11.8951000
  53.7604050  25.8204810  12.1424400  54.6828390  25.7199780  10.9462400
  53.4846740  22.4678160  10.4708370  53.3454510  23.3400960  10.8395770
  52.6028100  22.1250970  10.3256310  55.2827090  28.4099860  12.6793520
  55.2542520  28.8142810  11.8121950  55.1192060  27.4810220  12.5165120
  67.2341910  29.1926960  13.9757690  67.7101630  29.6709850  14.6546770
  67.8549070  29.1244450  13.2503190  49.4365390  24.2375710   6.3879280
  49.5145810  24.3724480   5.4435000  50.0507070  23.5291600   6.5807400
  50.6813020  25.9375900   2.7985460  50.2741100  26.0790490   1.9439060
  51.5726030  25.6536060   2.5956670  66.6375160  26.3839810  11.1357700
  66.7638220  26.1451690  10.2174880  66.6796540  25.5524350  11.6079780
  60.4991900  30.0867810   9.7052510  61.0136570  29.9975820  10.5074940
  59.6560980  30.4327510   9.9980420  61.7422360  29.5073420   1.7683000
  62.1979310  28.7262800   2.0821620  62.0814880  30.2180240   2.3124180
  66.4899170  18.4372270  12.1007440  65.8743440  18.9451940  11.5722900
  66.1695590  17.5370600  12.0433380  49.4924910  25.2789880   8.9273740
  49.6555950  24.8095240   8.1093110  49.9577360  24.7713440   9.5922580
  54.2643680  14.4095640   3.9634310  53.8211830  15.1905180   3.6318830
  54.8228670  14.7325530   4.6705250  58.5513490  17.2764160   9.5669630
  58.0892860  17.4847180  10.3789570  58.1491600  16.4623510   9.2640300
  63.5518000  18.4973110  10.6966290  62.7011590  18.1978860  11.0175360
  63.3919790  18.7415120   9.7850110  60.6467710  19.9974860  12.7965080
  60.9721120  19.1638610  12.4567310  61.4348040  20.5203380  12.9443410
  56.3019580  14.9542970   5.8223910  56.5991910  15.8605800   5.7415930
  56.8505140  14.4661750   5.2083480  56.4957110  20.4314790  12.3575830
  56.4000710  19.4909520  12.2076230  57.3389090  20.6529860  11.9623900
  51.6267650  16.8428460  10.5109610  51.2331040  17.6903670  10.7182390
  50.9386050  16.2054830  10.7018250  58.2012700  16.9263430  13.5806350
  57.5111020  16.7335630  14.2152440  58.9445000  17.2098070  14.1130650
  48.9284700  14.7656920   4.5439690  48.6397750  15.3359780   5.2564670
  49.6730460  14.2861370   4.9070920  60.4775670  20.7661870   6.4160270
  59.7456790  21.2748680   6.7650370  60.0800010  19.9491850   6.1149050
  56.9153060  17.4416070   4.8212760  56.9189120  17.0006020   3.9717300
  57.8104180  17.7633400   4.9284580  52.7655440  17.3242560   3.7806970
  52.4255490  17.8017790   4.5374020  52.0032760  16.8707680   3.4208070
  60.9401580  16.2195550   5.8283210  60.9574320  16.6704200   6.6725060
  60.6917160  15.3201190   6.0416650  64.3672330  13.6327730  11.6669590
  64.6918100  12.9017390  12.1927570  64.4028840  13.3141370  10.7650580
  51.0663890  24.6541310  11.0869550  50.6818680  24.0134980  11.6852510
  51.3776080  25.3577430  11.6564280  57.2161030  21.5017850   6.5678170
  57.5831160  21.0276420   7.3139510  57.0266090  22.3759420   6.9086510
  50.0801520  16.2461540   2.6971640  49.7948440  15.8817210   3.5350260
  50.0180380  15.5142000   2.0834780  55.0060400  20.5426490   8.8862380
  54.7017470  21.4218470   9.1112740  55.9606860  20.6026280   8.9219820
  64.2930170  23.7452840   5.2755620  65.0129290  24.2408130   4.8851730
  64.0911990  23.0670730   4.6309490  59.6748970  23.8161900  11.1624620
  59.6086280  22.8957570  10.9082210  59.0454110  23.9137340  11.8769260
  53.5779590  24.4167860   3.1208040  54.0958260  23.6136120   3.0664930
  53.1263610  24.3547000   3.9624870  51.0624130  21.3829230  10.0333740
  50.7039070  22.0483080  10.6207080  50.7678690  20.5512780  10.4046360
  54.2637250  21.8413470  12.9173290  53.9637390  21.9870650  12.0201110
  55.0348490  21.2818760  12.8246680  59.6065700  26.6382470  10.9128420
  59.6210240  25.7063430  10.6947330  58.8990800  26.7242230  11.5518190
  65.8176910  23.2789810  10.2597000  65.0925100  23.8718590  10.0626390
  66.3452370  23.2713350   9.4610370  61.3476500  25.0049980   3.7580850
  61.7000320  24.4078110   3.0982220  60.4638830  24.6794210   3.9289100
  59.0399600  28.2800040   8.0068920  59.6841820  28.4859420   8.6842340
  59.4029040  27.5188440   7.5539770  60.3131680  26.2832390   6.7246370
  60.9553910  25.5825550   6.8378540  60.8381030  27.0630830   6.5443260
  62.0869300  27.0827290   9.9282430  62.4225540  27.6693980  10.6060350
  61.1669640  26.9520000  10.1580220  49.6372700  14.8722470  10.7105840
  48.9231220  15.0719390  11.3158450  50.0567740  14.0962040  11.0820640
  49.9245290  28.8602730  11.6972370  50.0336410  27.9197470  11.5567760
  49.2725850  29.1257480  11.0486100  57.9157880  27.1318620  13.0970490
  57.5954750  26.4127860  13.6416180  57.2416240  27.8073690  13.1706550
  61.1311480  17.3644780   8.4607290  61.4992300  16.5439990   8.7886860
  60.2709680  17.4246670   8.8762940  58.0913470  20.0184370   8.6845260
  58.5898720  20.4930190   9.3497110  58.2336420  19.0947890   8.8915290
  65.2980330  16.2352330   9.5273650  64.7953930  16.9757730   9.8667460
  66.1136990  16.6236330   9.2110440  63.5902340  21.4785510   2.9735010
  62.6492480  21.4935740   3.1482700  63.9046410  20.6921470   3.4195310
  65.5927920  28.6494360   4.6489270  65.7175340  29.4725530   5.1213080
  66.4593480  28.4385090   4.3013420  53.0645450  30.7425570   4.3206400
  53.8007930  30.1941030   4.5914970  53.4486370  31.6081580   4.1812390
  52.0703730  29.9271640  13.5091980  52.8716460  30.2483690  13.9227380
  51.5555550  29.5667220  14.2311890  60.9068360  26.0351510  13.4567390
  60.3006520  26.0583110  12.7163140  60.6022470  25.3034550  13.9934640
  62.3368730  29.7631800  12.0676800  63.2890480  29.6789820  12.0177040
  62.1896950  30.4273510  12.7410590  49.7901540  22.4145100  12.4528030
  50.2940560  21.8352380  13.0244260  49.0508960  22.6985330  12.9904400
  56.8439480  23.8216090  11.9863550  56.0785150  24.3901090  11.9018220
  57.0255440  23.5292300  11.0931780  63.9862830  25.5521420  12.5438570
  64.7272300  25.8897180  12.0406030  63.2235510  25.7213480  11.9908340
  51.8224620  20.5574690  13.3478100  51.8629960  20.2588560  14.2563330
  52.6770120  20.9582300  13.1885620  53.7630430  19.1366790  11.3152590
  53.2326890  18.6457740  10.6875930  54.4318500  19.5650990  10.7810520
  62.6608490  23.6036250  11.0793780  63.0749510  23.7581330  11.9284200
  61.7259490  23.7291470  11.2419560  63.1330660  20.9432410  13.0832930
  63.7151430  20.1884730  12.9953410  63.3092430  21.4739850  12.3064410
  54.2502730  16.1029160  11.3949880  54.1559600  15.4849910  10.6700750
  53.6700120  16.8295450  11.1679790  57.0164170  14.6602400   8.4277270
  56.5681470  14.6826660   7.5822820  56.3829370  14.2621420   9.0247570
  57.4223720  23.5556730   9.0489710  57.8411830  24.3989460   8.8765950
  56.5032350  23.6928770   8.8196490  59.7587620  21.2872910  10.4327550
  59.8783830  20.6914050  11.1722390  60.6181620  21.3242600  10.0128850
  62.0975520  21.8410100   9.0090060  61.5710740  22.3652720   8.4055200
  62.4406860  22.4737490   9.6399790  55.2731140  29.8609740  10.1647440
  54.7352230  30.5855800   9.8456140  55.5265100  29.3840080   9.3744780
  56.5256390  17.8294260  11.6903370  57.1156080  17.5210110  12.3781190
  55.7076630  17.3574010  11.8463270  61.3449820  17.4460070  11.9236390
  60.6565340  16.7841610  11.8586380  62.0655840  16.9998340  12.3684850
  58.1293350  31.0960950  10.4234090  58.0552050  31.9996090  10.7306460
  57.2272190  30.7772850  10.3956160  49.5320640  28.4235540   3.7267710
  49.8623650  27.5556600   3.4946350  49.9611640  28.6294060   4.5572670
  50.0210850  29.2906130   6.4649340  49.5841840  29.4706930   7.2973490
  50.5888530  30.0480750   6.3231060  65.6573030  28.7923130  10.7526650
  65.0575020  28.8515690  10.0090570  65.7866930  27.8528110  10.8823500
  49.8535280  21.8026360   2.8238220  49.1984120  21.5338000   2.1797920
  50.6913230  21.6930840   2.3740200  67.3590910  24.1338530   3.4372490
  67.7299740  23.3505850   3.0308460  67.9992840  24.8227630   3.2589790
  64.3424670  25.5175110   8.8502810  63.5284510  25.9472270   9.1128600
  64.7498870  26.1293520   8.2371860  50.8911210  22.1878930   7.3641560
  51.2584250  22.1006330   8.2437580  50.3222030  21.4245480   7.2648420
  65.6915070  20.6563310  10.3772030  65.4601160  20.4276060   9.4769980
  65.9519620  21.5762860  10.3316920  50.4427210  19.0988020  11.2699980
  49.5483260  19.0654780  11.6093690  50.9824760  19.2974810  12.0351230
  64.1303140  15.8819740  13.1551730  65.0073320  15.8903140  13.5385730
  64.1423980  15.1450580  12.5444080  65.5766410  19.7349280   4.0439750
  66.1003890  19.2411930   3.4129920  66.1625830  19.8699640   4.7887320
  65.7556130  19.8189150   7.5659300  64.8058840  19.7852690   7.6804290
  65.9369140  20.7289260   7.3309070  50.9466920  13.3736350   5.6183200
  51.5943110  12.8233730   5.1778360  51.3668760  13.6279500   6.4399010
  66.4953540  17.6283580   2.5169840  66.3852820  17.4739620   3.4552110
  67.2561130  17.1004520   2.2745250  64.8419260  13.5677710   8.9752840
  65.4791480  14.1811850   9.3412030  64.9894150  13.6038370   8.0302070
  64.4000720  30.2693710   2.3771080  64.9959790  29.9478280   1.7005500
  64.6578870  29.7965530   3.1684350  50.6998920  13.5292020   8.3608520
  50.3513740  13.9855840   9.1266700  50.3686620  12.6349150   8.4430950
  52.3063290  26.7011620  12.5261710  52.2632920  26.3304530  13.4076170
  52.4374300  27.6389190  12.6663530  56.0069320  28.2571210   8.1271430
  55.7660680  28.5245770   7.2401950  56.9471960  28.4276940   8.1822290
  58.2123740  14.7203900  11.8827940  58.1512630  15.3125730  12.6323350
  59.1524120  14.6129860  11.7378200  60.8498300  14.3773960  11.5220230
  61.4638710  14.6953250  10.8601310  61.3947860  13.8922550  12.1416090
  67.2673480  30.2765590   8.9282070  66.7731760  30.6734460   8.2109200
  66.6586770  29.6514800   9.3219350  51.3719560  13.0568220  11.6359290
  51.9202550  12.8756270  10.8725400  51.4374870  12.2662330  12.1715600
  52.1451320  29.6473870   9.6459490  51.5511640  29.5158570  10.3849530
  52.1375160  28.8112010   9.1801590  61.5906340  12.9406100   7.8489520
  60.7166180  13.2741210   7.6462450  61.4817090  12.4679280   8.6741390
  62.4978320  15.1476970   9.2331240  62.1691680  14.3328730   8.8532970
  63.4460620  15.1046780   9.1096930  64.9512930  30.9189010   6.2068810
  64.4915900  31.6704820   5.8326830  64.3225390  30.1995480   6.1483610
  51.7763550  27.0132250   8.5967530  51.0497610  26.3937540   8.5293480
  51.8372700  27.4072860   7.7265610  55.3808650  29.2277250   5.3816940
  55.8973670  28.6164610   4.8565200  56.0306030  29.7306030   5.8727950
  58.1204150  30.1185740   6.2085920  58.4081960  29.8640040   5.3318930
  58.6327370  29.5663100   6.7991490  59.3381160  13.8575940   6.7882430
  58.5552950  14.3321440   7.0679190  59.0444090  12.9530770   6.6795610
  63.8902230  14.5599040   4.8331520  64.3310320  14.5044140   3.9853120
  63.6209820  15.4757050   4.9041700  65.7540800  14.1914280   2.8440340
  65.6929200  13.2475500   2.6971360  66.5332830  14.2994370   3.3893800
  57.2235380  16.2762690   2.2998460  56.4109890  15.9019580   1.9594340
  57.7277020  15.5207770   2.6019650  61.7260360  12.9405140   3.5381530
  62.3289730  13.5125350   4.0130050  60.9853350  13.5044580   3.3155430
  58.1876510  31.0401840  13.5754120  59.1143820  30.8046110  13.6190080
  58.1726940  31.8673840  13.0940150  55.3740120  13.7046590  13.3396000
  55.0924390  14.2080190  12.5756820  55.7559820  12.9068340  12.9738130
  61.9755580  13.1200170  13.9176470  61.8621030  13.4394780  14.8127990
  62.7925320  13.5212680  13.6213750  64.7554070  30.2671700  13.3995160
  65.5479390  29.7720930  13.1921120  65.0487220  30.9461840  14.0070770
  60.8813730   2.3649150  96.9272150  60.8007780   1.4503760  96.6563860
  60.4678150   2.8616220  96.2211860  59.0131770   4.1428170  98.8081420
  58.2373870   3.6628610  99.0979990  59.6644700   3.4633820  98.6337580
  53.0297600   4.4547980  99.6857180  52.1982480   4.1996690 100.0853690
  53.6378580   4.5258750 100.4215100  63.0339200   8.5488360  97.5880550
  62.5720730   7.7775600  97.9167720  63.8464750   8.5754430  98.0933000
  53.0098860   8.4888070  99.8815200  53.3126900   7.5985810  99.7025420
  53.7542450   9.0458290  99.6537450  49.4022560   2.0155520  99.3539270
  49.9738670   1.2477720  99.3542910  49.4024100   2.3144280  98.4445880
  59.2602510  10.8346370  97.2084540  58.6413950  11.2903870  96.6378980
  60.1154290  10.9897830  96.8074240  58.4540760   6.8185360  98.8151580
  58.3849040   5.8775300  98.6540710  59.2160620   6.9086770  99.3874150
  60.1265860   5.7185610  94.6016450  59.5083130   6.1835060  94.0379170
  60.6389110   6.4113090  95.0185960  49.4949060   6.4042140  91.9756080
  49.1177040   6.8929240  91.2440980  49.7522130   7.0767420  92.6062610
  65.1194310   8.6781690 101.0103870  64.4357830   9.3480800 101.0020540
  65.6588600   8.8762340 100.2448730  62.6553050  10.5225820  99.7249050
  62.6680210  10.1188110  98.8571310  62.1028270  11.2973110  99.6210480
  63.9498470   7.2442040  94.8139220  63.8394800   6.3016370  94.9388640
  63.9466720   7.6057680  95.7001980  62.0538490   5.4255660 101.0531660
  62.4707280   5.2115770 100.2185120  62.7778310   5.6828450 101.6240280
  59.4918750   2.8707360  94.1701710  58.5648030   2.8044740  94.3990180
  59.6443570   3.8087490  94.0556950  66.0000590   3.8242880 101.1447900
  65.1719220   3.8935970 100.6698030  66.5951070   4.4097190 100.6763730
  63.5216040   4.4327660  94.6736960  62.9028460   4.0947210  94.0263260
  63.5040490   3.7887420  95.3816150  55.0975390   3.3972100  96.9521440
  54.6932390   2.6849350  96.4567340  55.1838510   3.0525340  97.8409480
  55.5657090   7.0839660  99.1160650  55.2685380   6.4785130  98.4368430
  56.5156910   7.1216970  99.0050010  61.6980740   3.6714470  91.6809710
  62.1374020   2.8336900  91.5347530  62.4109160   4.3043870  91.7673850
  59.8076120   8.6110540  95.6490950  60.2472030   9.3534870  95.2346340
  59.7463010   8.8537110  96.5729910  51.7980020   2.2917080  94.4528090
  51.6777620   3.0179170  93.8409360  51.4880910   1.5219990  93.9756000
  49.4365390   5.4632220 100.2596730  49.5145810   5.5980990  99.3152450
  50.0507070   4.7548110 100.4524850  50.6813020   7.1632410  96.6702910
  50.2741100   7.3047000  95.8156510  51.5726030   6.8792570  96.4674120
  62.4746300  11.5979660  93.0053960  62.3147440  11.3082600  93.9035790
  62.3093010  10.8219790  92.4699190  54.9534680  11.3778190  94.7825580
  54.7777160  10.4613730  94.5693380  54.0990420  11.7365480  95.0223380
  62.1772430   9.1067220  91.5651960  61.4837590   9.1044510  90.9054240
  62.9195290   8.6826540  91.1346130  61.7422360  10.7329930  95.6400450
  62.1979310   9.9519310  95.9539070  62.0814880  11.4436750  96.1841630
  60.4775670   1.9918380 100.2877720  59.7456790   2.5005190 100.6367820
  60.0800010   1.1748360  99.9866500  55.9894710   1.9785800  91.0820270
  55.4211610   1.5304050  90.4556180  56.6983710   2.3378580  90.5485420
  57.2161030   2.7274360 100.4395620  57.5831160   2.2532930 101.1856960
  57.0266090   3.6015930 100.7803960  53.5342190   5.9743990  93.3546680
  52.7604450   5.4341610  93.1945400  54.2636820   5.4550600  93.0164440
  64.2930170   4.9709350  99.1473070  65.0129290   5.4664640  98.7569180
  64.0911990   4.2927240  98.5026940  53.5779590   5.6424370  96.9925490
  54.0958260   4.8392630  96.9382380  53.1263610   5.5803510  97.8342320
  58.4649090   6.9090650  92.2652790  58.8064790   7.6532880  91.7696110
  57.6361800   7.2221770  92.6277620  64.7402770   2.0478800  91.0544480
  64.6566490   2.4793020  90.2040920  65.4596960   2.5077150  91.4871300
  65.7690020   8.9021060  93.7826610  65.1266180   8.2476680  94.0570330
  65.3820680   9.3076150  93.0067280  61.3476500   6.2306490  97.6298300
  61.7000320   5.6334620  96.9699670  60.4638830   5.9050720  97.8006550
  57.4339780   6.9904180  95.0368710  58.1210910   7.5373390  95.4176300
  56.6472200   7.5344910  95.0718320  49.5732180   2.6077000  90.5285790
  50.4427030   2.8901800  90.8121710  49.0822500   3.4212870  90.4134600
  56.7366990   3.9950210  94.6494070  57.1929770   4.8055460  94.8754260
  56.3855200   3.6773350  95.4812560  60.3131680   7.5088900 100.5963820
  60.9553910   6.8082060 100.7095990  60.8381030   8.2887340 100.4160710
  64.1587400   7.7937520  90.3202960  63.9324980   7.0767960  90.9127600
  63.7683600   7.5449960  89.4824710  49.9403430  11.8204380  91.0947420
  50.3001070  12.4193720  90.4404690  49.7995770  12.3664270  91.8682450
  63.7403650   5.7109460  91.9817120  63.4525350   6.1722150  92.7695000
  64.5355820   5.2507230  92.2501340  55.9572050   9.2035580  91.9121090
  55.9482150   9.9365270  91.2965600  55.0370410   8.9567160  92.0048050
  51.5578690   4.4250470  92.6567850  50.9506640   5.1649370  92.6663150
  52.0328040   4.5149830  91.8306050  58.9431650   9.2663820  90.5746280
  59.0443630   9.0627810  89.6448260  58.0433390   9.0122100  90.7794060
  57.5849760  11.7850140  95.2693950  57.8391260  11.7471530  94.3473320
  56.6362240  11.6583470  95.2622200  63.5902340   2.7042020  96.8452460
  62.6492480   2.7192250  97.0200150  63.9046410   1.9177980  97.2912760
  53.5683980   4.3861620  90.4056420  54.3347250   4.2742980  90.9681850
  53.6458670   3.6899590  89.7533190  65.5927920   9.8750870  98.5206720
  65.7175340  10.6982040  98.9930530  66.4593480   9.6641600  98.1730870
  53.0645450  11.9682080  98.1923850  53.8007930  11.4197540  98.4632420
  53.4486370  12.8338090  98.0529840  49.9490930   8.0355650  94.0665360
  49.0230710   8.2776790  94.0570770  50.4147360   8.8629910  93.9450110
  56.1747760  11.1412390  90.0149420  56.9676370  11.4301220  89.5631210
  55.6552110  10.7104560  89.3361900  65.2277930  10.3682520  91.4386160
  64.9419440   9.9547660  90.6240340  65.0297480  11.2970230  91.3186680
  56.6925160   6.3615800  89.8791770  56.5875800   5.7468150  90.6053150
  56.5249380   5.8381690  89.0954780  59.9327890   5.4235830  90.4833760
  59.3837990   5.8705130  91.1276500  60.5547150   4.9185080  91.0071430
  55.6003010   4.3826750  92.3799060  56.0219430   4.2166620  93.2230450
  55.7253850   3.5726980  91.8854200  58.1130650   3.4064360  89.6276160
  58.6336310   2.6913380  89.2617310  58.7599050   4.0450230  89.9276670
  58.6778680  11.4875970  91.9177900  59.5729470  11.8260940  91.9396660
  58.7096310  10.7655380  91.2902180  52.3174840   6.8603020  90.1464900
  52.7549710   7.4032690  90.8022480  52.8022570   6.0349970  90.1561240
  49.5320640   9.6492050  97.5985160  49.8623650   8.7813110  97.3663800
  49.9611640   9.8550570  98.4290120  54.1282560   7.9801060  95.2587130
  53.8278100   7.8566030  96.1591040  54.0220050   7.1209650  94.8502860
  50.0210850  10.5162640 100.3366790  49.5841840  10.6963440 101.1690940
  50.5888530  11.2737260 100.1948510  66.8974480   7.7597460  89.9613810
  66.0667440   7.8274110  90.4321040  67.0746310   8.6501580  89.6580670
  66.3530940   4.5044940  92.4648010  67.1149850   5.0741590  92.5707700
  66.3685310   3.9372140  93.2356320  49.8535280   3.0282870  96.6955670
  49.1984120   2.7594510  96.0515370  50.6913230   2.9187350  96.2457650
  67.3590910   5.3595040  97.3089940  67.7299740   4.5762360  96.9025910
  67.9992840   6.0484140  97.1307240  66.4050110   4.7979310  89.6220530
  66.6798950   5.7058190  89.4939750  66.2160850   4.7341840  90.5582520
  66.3015450   2.7348300  94.6149960  65.9259050   1.9676230  94.1831250
  65.5718570   3.1171000  95.1024890  64.4000720  11.4950220  96.2488530
  64.9959790  11.1734790  95.5722950  64.6578870  11.0222040  97.0401800
  64.9512930  12.1445520 100.0786260  64.4915900  12.8961330  99.7044280
  64.3225390  11.4251990 100.0201060  55.3808650  10.4533760  99.2534390
  55.8973670   9.8421120  98.7282650  56.0306030  10.9562540  99.7445400
  58.1204150  11.3442250 100.0803370  58.4081960  11.0896550  99.2036380
  58.6327370  10.7919610 100.6708940  50.0593550  11.5563150  95.6781740
  49.8915590  10.9233830  96.3763630  49.1928060  11.7622550  95.3275930
  51.6656250  10.2496380  93.1231880  51.1403870  10.6304410  92.4193840
  51.5900830  10.8747150  93.8441590  66.4221570  11.8083920  94.4445820
  66.5973760  11.1221660  93.8006740  65.7243140  12.3330970  94.0522490
  54.2649220  12.1978760  91.9981130  54.9968040  11.9138040  91.4505020
  54.5242890  11.9592040  92.8880510  53.4264010   8.3143490  92.0027460
  52.7972890   8.7828590  92.5513290  53.5411840   7.4692710  92.4373650
  60.8813730   2.3649150  78.1528660  60.8007780   1.4503760  77.8820370
  60.4678150   2.8616220  77.4468370  59.0131770   4.1428170  80.0337930
  58.2373870   3.6628610  80.3236500  59.6644700   3.4633820  79.8594090
  53.0297600   4.4547980  80.9113690  52.1982480   4.1996690  81.3110200
  53.6378580   4.5258750  81.6471610  63.0339200   8.5488360  78.8137060
  62.5720730   7.7775600  79.1424230  63.8464750   8.5754430  79.3189510
  53.0098860   8.4888070  81.1071710  53.3126900   7.5985810  80.9281930
  53.7542450   9.0458290  80.8793960  49.4022560   2.0155520  80.5795780
  49.9738670   1.2477720  80.5799420  49.4024100   2.3144280  79.6702390
  59.2602510  10.8346370  78.4341050  58.6413950  11.2903870  77.8635490
  60.1154290  10.9897830  78.0330750  58.4540760   6.8185360  80.0408090
  58.3849040   5.8775300  79.8797220  59.2160620   6.9086770  80.6130660
  60.1265860   5.7185610  75.8272960  59.5083130   6.1835060  75.2635680
  60.6389110   6.4113090  76.2442470  54.9897620   5.2461480  82.5056560
  54.6567000   5.8730400  83.1477630  55.1664300   5.7723360  81.7258230
  54.2016720   7.2142280  84.3205740  54.8190720   7.8893360  84.0390190
  53.3409840   7.6230260  84.2293240  49.4949060   6.4042140  73.2012590
  49.1177040   6.8929240  72.4697490  49.7522130   7.0767420  73.8319120
  65.1194310   8.6781690  82.2360380  64.4357830   9.3480800  82.2277050
  65.6588600   8.8762340  81.4705240  62.6553050  10.5225820  80.9505560
  62.6680210  10.1188110  80.0827820  62.1028270  11.2973110  80.8466990
  63.9498470   7.2442040  76.0395730  63.8394800   6.3016370  76.1645150
  63.9466720   7.6057680  76.9258490  62.0538490   5.4255660  82.2788170
  62.4707280   5.2115770  81.4441630  62.7778310   5.6828450  82.8496790
  59.4918750   2.8707360  75.3958220  58.5648030   2.8044740  75.6246690
  59.6443570   3.8087490  75.2813460  66.0000590   3.8242880  82.3704410
  65.1719220   3.8935970  81.8954540  66.5951070   4.4097190  81.9020240
  63.5216040   4.4327660  75.8993470  62.9028460   4.0947210  75.2519770
  63.5040490   3.7887420  76.6072660  55.0975390   3.3972100  78.1777950
  54.6932390   2.6849350  77.6823850  55.1838510   3.0525340  79.0665990
  55.5657090   7.0839660  80.3417160  55.2685380   6.4785130  79.6624940
  56.5156910   7.1216970  80.2306520  63.6542700  10.6571530  84.0040260
  63.1773260  11.4643720  83.8112870  62.9704490  10.0049860  84.1566470
  54.6575520   6.8221350  86.9924960  53.7604050   7.0461320  87.2398360
  54.6828390   6.9456290  86.0436360  61.6980740   3.6714470  72.9066220
  62.1374020   2.8336900  72.7604040  62.4109160   4.3043870  72.9930360
  53.4846740   3.6934670  85.5682330  53.3454510   4.5657470  85.9369730
  52.6028100   3.3507480  85.4230270  59.8076120   8.6110540  76.8747460
  60.2472030   9.3534870  76.4602850  59.7463010   8.8537110  77.7986420
  55.2827090   9.6356370  87.7767480  55.2542520  10.0399320  86.9095910
  55.1192060   8.7066730  87.6139080  51.7980020   2.2917080  75.6784600
  51.6777620   3.0179170  75.0665870  51.4880910   1.5219990  75.2012510
  67.2341910  10.4183470  89.0731650  67.7101630  10.8966360  89.7520730
  67.8549070  10.3500960  88.3477150  49.4365390   5.4632220  81.4853240
  49.5145810   5.5980990  80.5408960  50.0507070   4.7548110  81.6781360
  50.6813020   7.1632410  77.8959420  50.2741100   7.3047000  77.0413020
  51.5726030   6.8792570  77.6930630  66.6375160   7.6096320  86.2331660
  66.7638220   7.3708200  85.3148840  66.6796540   6.7780860  86.7053740
  60.4991900  11.3124320  84.8026470  61.0136570  11.2232330  85.6048900
  59.6560980  11.6584020  85.0954380  62.4746300  11.5979660  74.2310470
  62.3147440  11.3082600  75.1292300  62.3093010  10.8219790  73.6955700
  54.9534680  11.3778190  76.0082090  54.7777160  10.4613730  75.7949890
  54.0990420  11.7365480  76.2479890  62.1772430   9.1067220  72.7908470
  61.4837590   9.1044510  72.1310750  62.9195290   8.6826540  72.3602640
  61.7422360  10.7329930  76.8656960  62.1979310   9.9519310  77.1795580
  62.0814880  11.4436750  77.4098140  49.4924910   6.5046390  84.0247700
  49.6555950   6.0351750  83.2067070  49.9577360   5.9969950  84.6896540
  60.4775670   1.9918380  81.5134230  59.7456790   2.5005190  81.8624330
  60.0800010   1.1748360  81.2123010  55.9894710   1.9785800  72.3076780
  55.4211610   1.5304050  71.6812690  56.6983710   2.3378580  71.7741930
  51.0663890   5.8797820  86.1843510  50.6818680   5.2391490  86.7826470
  51.3776080   6.5833940  86.7538240  57.2161030   2.7274360  81.6652130
  57.5831160   2.2532930  82.4113470  57.0266090   3.6015930  82.0060470
  55.0060400   1.7683000  83.9836340  54.7017470   2.6474980  84.2086700
  55.9606860   1.8282790  84.0193780  53.5342190   5.9743990  74.5803190
  52.7604450   5.4341610  74.4201910  54.2636820   5.4550600  74.2420950
  64.2930170   4.9709350  80.3729580  65.0129290   5.4664640  79.9825690
  64.0911990   4.2927240  79.7283450  59.6748970   5.0418410  86.2598580
  59.6086280   4.1214080  86.0056170  59.0454110   5.1393850  86.9743220
  53.5779590   5.6424370  78.2182000  54.0958260   4.8392630  78.1638890
  53.1263610   5.5803510  79.0598830  58.4649090   6.9090650  73.4909300
  58.8064790   7.6532880  72.9952620  57.6361800   7.2221770  73.8534130
  51.0624130   2.6085740  85.1307700  50.7039070   3.2739590  85.7181040
  50.7678690   1.7769290  85.5020320  54.2637250   3.0669980  88.0147250
  53.9637390   3.2127160  87.1175070  55.0348490   2.5075270  87.9220640
  59.6065700   7.8638980  86.0102380  59.6210240   6.9319940  85.7921290
  58.8990800   7.9498740  86.6492150  64.7402770   2.0478800  72.2800990
  64.6566490   2.4793020  71.4297430  65.4596960   2.5077150  72.7127810
  65.8176910   4.5046320  85.3570960  65.0925100   5.0975100  85.1600350
  66.3452370   4.4969860  84.5584330  65.7690020   8.9021060  75.0083120
  65.1266180   8.2476680  75.2826840  65.3820680   9.3076150  74.2323790
  61.3476500   6.2306490  78.8554810  61.7000320   5.6334620  78.1956180
  60.4638830   5.9050720  79.0263060  57.4339780   6.9904180  76.2625220
  58.1210910   7.5373390  76.6432810  56.6472200   7.5344910  76.2974830
  49.5732180   2.6077000  71.7542300  50.4427030   2.8901800  72.0378220
  49.0822500   3.4212870  71.6391110  56.7366990   3.9950210  75.8750580
  57.1929770   4.8055460  76.1010770  56.3855200   3.6773350  76.7069070
  59.0399600   9.5056550  83.1042880  59.6841820   9.7115930  83.7816300
  59.4029040   8.7444950  82.6513730  60.3131680   7.5088900  81.8220330
  60.9553910   6.8082060  81.9352500  60.8381030   8.2887340  81.6417220
  64.1587400   7.7937520  71.5459470  63.9324980   7.0767960  72.1384110
  63.7683600   7.5449960  70.7081220  62.0869300   8.3083800  85.0256390
  62.4225540   8.8950490  85.7034310  61.1669640   8.1776510  85.2554180
  49.9403430  11.8204380  72.3203930  50.3001070  12.4193720  71.6661200
  49.7995770  12.3664270  73.0938960  63.7403650   5.7109460  73.2073630
  63.4525350   6.1722150  73.9951510  64.5355820   5.2507230  73.4757850
  49.9245290  10.0859240  86.7946330  50.0336410   9.1453980  86.6541720
  49.2725850  10.3513990  86.1460060  57.9157880   8.3575130  88.1944450
  57.5954750   7.6384370  88.7390140  57.2416240   9.0330200  88.2680510
  55.9572050   9.2035580  73.1377600  55.9482150   9.9365270  72.5222110
  55.0370410   8.9567160  73.2304560  51.5578690   4.4250470  73.8824360
  50.9506640   5.1649370  73.8919660  52.0328040   4.5149830  73.0562560
  58.9431650   9.2663820  71.8002790  59.0443630   9.0627810  70.8704770
  58.0433390   9.0122100  72.0050570  57.5849760  11.7850140  76.4950460
  57.8391260  11.7471530  75.5729830  56.6362240  11.6583470  76.4878710
  63.5902340   2.7042020  78.0708970  62.6492480   2.7192250  78.2456660
  63.9046410   1.9177980  78.5169270  53.5683980   4.3861620  71.6312930
  54.3347250   4.2742980  72.1938360  53.6458670   3.6899590  70.9789700
  65.5927920   9.8750870  79.7463230  65.7175340  10.6982040  80.2187040
  66.4593480   9.6641600  79.3987380  53.0645450  11.9682080  79.4180360
  53.8007930  11.4197540  79.6888930  53.4486370  12.8338090  79.2786350
  49.9490930   8.0355650  75.2921870  49.0230710   8.2776790  75.2827280
  50.4147360   8.8629910  75.1706620  52.0703730  11.1528150  88.6065940
  52.8716460  11.4740200  89.0201340  51.5555550  10.7923730  89.3285850
  56.1747760  11.1412390  71.2405930  56.9676370  11.4301220  70.7887720
  55.6552110  10.7104560  70.5618410  60.9068360   7.2608020  88.5541350
  60.3006520   7.2839620  87.8137100  60.6022470   6.5291060  89.0908600
  62.3368730  10.9888310  87.1650760  63.2890480  10.9046330  87.1151000
  62.1896950  11.6530020  87.8384550  65.2277930  10.3682520  72.6642670
  64.9419440   9.9547660  71.8496850  65.0297480  11.2970230  72.5443190
  49.7901540   3.6401610  87.5501990  50.2940560   3.0608890  88.1218220
  49.0508960   3.9241840  88.0878360  56.6925160   6.3615800  71.1048280
  56.5875800   5.7468150  71.8309660  56.5249380   5.8381690  70.3211290
  56.8439480   5.0472600  87.0837510  56.0785150   5.6157600  86.9992180
  57.0255440   4.7548810  86.1905740  59.9327890   5.4235830  71.7090270
  59.3837990   5.8705130  72.3533010  60.5547150   4.9185080  72.2327940
  63.9862830   6.7777930  87.6412530  64.7272300   7.1153690  87.1379990
  63.2235510   6.9469990  87.0882300  51.8224620   1.7831200  88.4452060
  51.8629960   1.4845070  89.3537290  52.6770120   2.1838810  88.2859580
  55.6003010   4.3826750  73.6055570  56.0219430   4.2166620  74.4486960
  55.7253850   3.5726980  73.1110710  58.1130650   3.4064360  70.8532670
  58.6336310   2.6913380  70.4873820  58.7599050   4.0450230  71.1533180
  62.6608490   4.8292760  86.1767740  63.0749510   4.9837840  87.0258160
  61.7259490   4.9547980  86.3393520  63.1330660   2.1688920  88.1806890
  63.7151430   1.4141240  88.0927370  63.3092430   2.6996360  87.4038370
  57.4223720   4.7813240  84.1463670  57.8411830   5.6245970  83.9739910
  56.5032350   4.9185280  83.9170450  59.7587620   2.5129420  85.5301510
  59.8783830   1.9170560  86.2696350  60.6181620   2.5499110  85.1102810
  62.0975520   3.0666610  84.1064020  61.5710740   3.5909230  83.5029160
  62.4406860   3.6994000  84.7373750  55.2731140  11.0866250  85.2621400
  54.7352230  11.8112310  84.9430100  55.5265100  10.6096590  84.4718740
  58.1293350  12.3217460  85.5208050  58.0552050  13.2252600  85.8280420
  57.2272190  12.0029360  85.4930120  58.6778680  11.4875970  73.1434410
  59.5729470  11.8260940  73.1653170  58.7096310  10.7655380  72.5158690
  52.3174840   6.8603020  71.3721410  52.7549710   7.4032690  72.0278990
  52.8022570   6.0349970  71.3817750  49.5320640   9.6492050  78.8241670
  49.8623650   8.7813110  78.5920310  49.9611640   9.8550570  79.6546630
  54.1282560   7.9801060  76.4843640  53.8278100   7.8566030  77.3847550
  54.0220050   7.1209650  76.0759370  50.0210850  10.5162640  81.5623300
  49.5841840  10.6963440  82.3947450  50.5888530  11.2737260  81.4205020
  65.6573030  10.0179640  85.8500610  65.0575020  10.0772200  85.1064530
  65.7866930   9.0784620  85.9797460  66.8974480   7.7597460  71.1870320
  66.0667440   7.8274110  71.6577550  67.0746310   8.6501580  70.8837180
  66.3530940   4.5044940  73.6904520  67.1149850   5.0741590  73.7964210
  66.3685310   3.9372140  74.4612830  49.8535280   3.0282870  77.9212180
  49.1984120   2.7594510  77.2771880  50.6913230   2.9187350  77.4714160
  67.3590910   5.3595040  78.5346450  67.7299740   4.5762360  78.1282420
  67.9992840   6.0484140  78.3563750  64.3424670   6.7431620  83.9476770
  63.5284510   7.1728780  84.2102560  64.7498870   7.3550030  83.3345820
  66.4050110   4.7979310  70.8477040  66.6798950   5.7058190  70.7196260
  66.2160850   4.7341840  71.7839030  66.3015450   2.7348300  75.8406470
  65.9259050   1.9676230  75.4087760  65.5718570   3.1171000  76.3281400
  50.8911210   3.4135440  82.4615520  51.2584250   3.3262840  83.3411540
  50.3222030   2.6501990  82.3622380  65.6915070   1.8819820  85.4745990
  65.4601160   1.6532570  84.5743940  65.9519620   2.8019370  85.4290880
  64.4000720  11.4950220  77.4745040  64.9959790  11.1734790  76.7979460
  64.6578870  11.0222040  78.2658310  52.3063290   7.9268130  87.6235670
  52.2632920   7.5561040  88.5050130  52.4374300   8.8645700  87.7637490
  56.0069320   9.4827720  83.2245390  55.7660680   9.7502280  82.3375910
  56.9471960   9.6533450  83.2796250  67.2673480  11.5022100  84.0256030
  66.7731760  11.8990970  83.3083160  66.6586770  10.8771310  84.4193310
  52.1451320  10.8730380  84.7433450  51.5511640  10.7415080  85.4823490
  52.1375160  10.0368520  84.2775550  64.9512930  12.1445520  81.3042770
  64.4915900  12.8961330  80.9300790  64.3225390  11.4251990  81.2457570
  51.7763550   8.2388760  83.6941490  51.0497610   7.6194050  83.6267440
  51.8372700   8.6329370  82.8239570  55.3808650  10.4533760  80.4790900
  55.8973670   9.8421120  79.9539160  56.0306030  10.9562540  80.9701910
  58.1204150  11.3442250  81.3059880  58.4081960  11.0896550  80.4292890
  58.6327370  10.7919610  81.8965450  50.0593550  11.5563150  76.9038250
  49.8915590  10.9233830  77.6020140  49.1928060  11.7622550  76.5532440
  51.6656250  10.2496380  74.3488390  51.1403870  10.6304410  73.6450350
  51.5900830  10.8747150  75.0698100  58.1876510  12.2658350  88.6728080
  59.1143820  12.0302620  88.7164040  58.1726940  13.0930350  88.1914110
  66.4221570  11.8083920  75.6702330  66.5973760  11.1221660  75.0263250
  65.7243140  12.3330970  75.2779000  54.2649220  12.1978760  73.2237640
  54.9968040  11.9138040  72.6761530  54.5242890  11.9592040  74.1137020
  53.4264010   8.3143490  73.2283970  52.7972890   8.7828590  73.7769800
  53.5411840   7.4692710  73.6630160  64.7554070  11.4928210  88.4969120
  65.5479390  10.9977440  88.2895080  65.0487220  12.1718350  89.1044730
  60.8813730   2.3649150  59.3785170  60.8007780   1.4503760  59.1076880
  60.4678150   2.8616220  58.6724880  59.0131770   4.1428170  61.2594440
  58.2373870   3.6628610  61.5493010  59.6644700   3.4633820  61.0850600
  53.0297600   4.4547980  62.1370200  52.1982480   4.1996690  62.5366710
  53.6378580   4.5258750  62.8728120  63.0339200   8.5488360  60.0393570
  62.5720730   7.7775600  60.3680740  63.8464750   8.5754430  60.5446020
  53.0098860   8.4888070  62.3328220  53.3126900   7.5985810  62.1538440
  53.7542450   9.0458290  62.1050470  49.4022560   2.0155520  61.8052290
  49.9738670   1.2477720  61.8055930  49.4024100   2.3144280  60.8958900
  59.2602510  10.8346370  59.6597560  58.6413950  11.2903870  59.0892000
  60.1154290  10.9897830  59.2587260  58.4540760   6.8185360  61.2664600
  58.3849040   5.8775300  61.1053730  59.2160620   6.9086770  61.8387170
  60.1265860   5.7185610  57.0529470  59.5083130   6.1835060  56.4892190
  60.6389110   6.4113090  57.4698980  54.9897620   5.2461480  63.7313070
  54.6567000   5.8730400  64.3734140  55.1664300   5.7723360  62.9514740
  54.2016720   7.2142280  65.5462250  54.8190720   7.8893360  65.2646700
  53.3409840   7.6230260  65.4549750  49.4949060   6.4042140  54.4269100
  49.1177040   6.8929240  53.6954000  49.7522130   7.0767420  55.0575630
  65.1194310   8.6781690  63.4616890  64.4357830   9.3480800  63.4533560
  65.6588600   8.8762340  62.6961750  62.6553050  10.5225820  62.1762070
  62.6680210  10.1188110  61.3084330  62.1028270  11.2973110  62.0723500
  63.9498470   7.2442040  57.2652240  63.8394800   6.3016370  57.3901660
  63.9466720   7.6057680  58.1515000  62.0538490   5.4255660  63.5044680
  62.4707280   5.2115770  62.6698140  62.7778310   5.6828450  64.0753300
  59.4918750   2.8707360  56.6214730  58.5648030   2.8044740  56.8503200
  59.6443570   3.8087490  56.5069970  66.0000590   3.8242880  63.5960920
  65.1719220   3.8935970  63.1211050  66.5951070   4.4097190  63.1276750
  63.5216040   4.4327660  57.1249980  62.9028460   4.0947210  56.4776280
  63.5040490   3.7887420  57.8329170  55.0975390   3.3972100  59.4034460
  54.6932390   2.6849350  58.9080360  55.1838510   3.0525340  60.2922500
  55.5657090   7.0839660  61.5673670  55.2685380   6.4785130  60.8881450
  56.5156910   7.1216970  61.4563030  63.6542700  10.6571530  65.2296770
  63.1773260  11.4643720  65.0369380  62.9704490  10.0049860  65.3822980
  54.6575520   6.8221350  68.2181470  53.7604050   7.0461320  68.4654870
  54.6828390   6.9456290  67.2692870  61.6980740   3.6714470  54.1322730
  62.1374020   2.8336900  53.9860550  62.4109160   4.3043870  54.2186870
  53.4846740   3.6934670  66.7938840  53.3454510   4.5657470  67.1626240
  52.6028100   3.3507480  66.6486780  59.8076120   8.6110540  58.1003970
  60.2472030   9.3534870  57.6859360  59.7463010   8.8537110  59.0242930
  55.2827090   9.6356370  69.0023990  55.2542520  10.0399320  68.1352420
  55.1192060   8.7066730  68.8395590  51.7980020   2.2917080  56.9041110
  51.6777620   3.0179170  56.2922380  51.4880910   1.5219990  56.4269020
  67.2341910  10.4183470  70.2988160  67.7101630  10.8966360  70.9777240
  67.8549070  10.3500960  69.5733660  49.4365390   5.4632220  62.7109750
  49.5145810   5.5980990  61.7665470  50.0507070   4.7548110  62.9037870
  50.6813020   7.1632410  59.1215930  50.2741100   7.3047000  58.2669530
  51.5726030   6.8792570  58.9187140  66.6375160   7.6096320  67.4588170
  66.7638220   7.3708200  66.5405350  66.6796540   6.7780860  67.9310250
  60.4991900  11.3124320  66.0282980  61.0136570  11.2232330  66.8305410
  59.6560980  11.6584020  66.3210890  62.4746300  11.5979660  55.4566980
  62.3147440  11.3082600  56.3548810  62.3093010  10.8219790  54.9212210
  54.9534680  11.3778190  57.2338600  54.7777160  10.4613730  57.0206400
  54.0990420  11.7365480  57.4736400  62.1772430   9.1067220  54.0164980
  61.4837590   9.1044510  53.3567260  62.9195290   8.6826540  53.5859150
  61.7422360  10.7329930  58.0913470  62.1979310   9.9519310  58.4052090
  62.0814880  11.4436750  58.6354650  49.4924910   6.5046390  65.2504210
  49.6555950   6.0351750  64.4323580  49.9577360   5.9969950  65.9153050
  60.4775670   1.9918380  62.7390740  59.7456790   2.5005190  63.0880840
  60.0800010   1.1748360  62.4379520  55.9894710   1.9785800  53.5333290
  55.4211610   1.5304050  52.9069200  56.6983710   2.3378580  52.9998440
  51.0663890   5.8797820  67.4100020  50.6818680   5.2391490  68.0082980
  51.3776080   6.5833940  67.9794750  57.2161030   2.7274360  62.8908640
  57.5831160   2.2532930  63.6369980  57.0266090   3.6015930  63.2316980
  55.0060400   1.7683000  65.2092850  54.7017470   2.6474980  65.4343210
  55.9606860   1.8282790  65.2450290  53.5342190   5.9743990  55.8059700
  52.7604450   5.4341610  55.6458420  54.2636820   5.4550600  55.4677460
  64.2930170   4.9709350  61.5986090  65.0129290   5.4664640  61.2082200
  64.0911990   4.2927240  60.9539960  59.6748970   5.0418410  67.4855090
  59.6086280   4.1214080  67.2312680  59.0454110   5.1393850  68.1999730
  53.5779590   5.6424370  59.4438510  54.0958260   4.8392630  59.3895400
  53.1263610   5.5803510  60.2855340  58.4649090   6.9090650  54.7165810
  58.8064790   7.6532880  54.2209130  57.6361800   7.2221770  55.0790640
  51.0624130   2.6085740  66.3564210  50.7039070   3.2739590  66.9437550
  50.7678690   1.7769290  66.7276830  54.2637250   3.0669980  69.2403760
  53.9637390   3.2127160  68.3431580  55.0348490   2.5075270  69.1477150
  59.6065700   7.8638980  67.2358890  59.6210240   6.9319940  67.0177800
  58.8990800   7.9498740  67.8748660  64.7402770   2.0478800  53.5057500
  64.6566490   2.4793020  52.6553940  65.4596960   2.5077150  53.9384320
  65.8176910   4.5046320  66.5827470  65.0925100   5.0975100  66.3856860
  66.3452370   4.4969860  65.7840840  65.7690020   8.9021060  56.2339630
  65.1266180   8.2476680  56.5083350  65.3820680   9.3076150  55.4580300
  61.3476500   6.2306490  60.0811320  61.7000320   5.6334620  59.4212690
  60.4638830   5.9050720  60.2519570  57.4339780   6.9904180  57.4881730
  58.1210910   7.5373390  57.8689320  56.6472200   7.5344910  57.5231340
  49.5732180   2.6077000  52.9798810  50.4427030   2.8901800  53.2634730
  49.0822500   3.4212870  52.8647620  56.7366990   3.9950210  57.1007090
  57.1929770   4.8055460  57.3267280  56.3855200   3.6773350  57.9325580
  59.0399600   9.5056550  64.3299390  59.6841820   9.7115930  65.0072810
  59.4029040   8.7444950  63.8770240  60.3131680   7.5088900  63.0476840
  60.9553910   6.8082060  63.1609010  60.8381030   8.2887340  62.8673730
  64.1587400   7.7937520  52.7715980  63.9324980   7.0767960  53.3640620
  63.7683600   7.5449960  51.9337730  62.0869300   8.3083800  66.2512900
  62.4225540   8.8950490  66.9290820  61.1669640   8.1776510  66.4810690
  49.9403430  11.8204380  53.5460440  50.3001070  12.4193720  52.8917710
  49.7995770  12.3664270  54.3195470  63.7403650   5.7109460  54.4330140
  63.4525350   6.1722150  55.2208020  64.5355820   5.2507230  54.7014360
  49.9245290  10.0859240  68.0202840  50.0336410   9.1453980  67.8798230
  49.2725850  10.3513990  67.3716570  57.9157880   8.3575130  69.4200960
  57.5954750   7.6384370  69.9646650  57.2416240   9.0330200  69.4937020
  55.9572050   9.2035580  54.3634110  55.9482150   9.9365270  53.7478620
  55.0370410   8.9567160  54.4561070  51.5578690   4.4250470  55.1080870
  50.9506640   5.1649370  55.1176170  52.0328040   4.5149830  54.2819070
  58.9431650   9.2663820  53.0259300  59.0443630   9.0627810  52.0961280
  58.0433390   9.0122100  53.2307080  57.5849760  11.7850140  57.7206970
  57.8391260  11.7471530  56.7986340  56.6362240  11.6583470  57.7135220
  63.5902340   2.7042020  59.2965480  62.6492480   2.7192250  59.4713170
  63.9046410   1.9177980  59.7425780  53.5683980   4.3861620  52.8569440
  54.3347250   4.2742980  53.4194870  53.6458670   3.6899590  52.2046210
  65.5927920   9.8750870  60.9719740  65.7175340  10.6982040  61.4443550
  66.4593480   9.6641600  60.6243890  53.0645450  11.9682080  60.6436870
  53.8007930  11.4197540  60.9145440  53.4486370  12.8338090  60.5042860
  49.9490930   8.0355650  56.5178380  49.0230710   8.2776790  56.5083790
  50.4147360   8.8629910  56.3963130  52.0703730  11.1528150  69.8322450
  52.8716460  11.4740200  70.2457850  51.5555550  10.7923730  70.5542360
  56.1747760  11.1412390  52.4662440  56.9676370  11.4301220  52.0144230
  55.6552110  10.7104560  51.7874920  60.9068360   7.2608020  69.7797860
  60.3006520   7.2839620  69.0393610  60.6022470   6.5291060  70.3165110
  62.3368730  10.9888310  68.3907270  63.2890480  10.9046330  68.3407510
  62.1896950  11.6530020  69.0641060  65.2277930  10.3682520  53.8899180
  64.9419440   9.9547660  53.0753360  65.0297480  11.2970230  53.7699700
  49.7901540   3.6401610  68.7758500  50.2940560   3.0608890  69.3474730
  49.0508960   3.9241840  69.3134870  56.6925160   6.3615800  52.3304790
  56.5875800   5.7468150  53.0566170  56.5249380   5.8381690  51.5467800
  56.8439480   5.0472600  68.3094020  56.0785150   5.6157600  68.2248690
  57.0255440   4.7548810  67.4162250  59.9327890   5.4235830  52.9346780
  59.3837990   5.8705130  53.5789520  60.5547150   4.9185080  53.4584450
  63.9862830   6.7777930  68.8669040  64.7272300   7.1153690  68.3636500
  63.2235510   6.9469990  68.3138810  51.8224620   1.7831200  69.6708570
  51.8629960   1.4845070  70.5793800  52.6770120   2.1838810  69.5116090
  55.6003010   4.3826750  54.8312080  56.0219430   4.2166620  55.6743470
  55.7253850   3.5726980  54.3367220  58.1130650   3.4064360  52.0789180
  58.6336310   2.6913380  51.7130330  58.7599050   4.0450230  52.3789690
  62.6608490   4.8292760  67.4024250  63.0749510   4.9837840  68.2514670
  61.7259490   4.9547980  67.5650030  63.1330660   2.1688920  69.4063400
  63.7151430   1.4141240  69.3183880  63.3092430   2.6996360  68.6294880
  57.4223720   4.7813240  65.3720180  57.8411830   5.6245970  65.1996420
  56.5032350   4.9185280  65.1426960  59.7587620   2.5129420  66.7558020
  59.8783830   1.9170560  67.4952860  60.6181620   2.5499110  66.3359320
  62.0975520   3.0666610  65.3320530  61.5710740   3.5909230  64.7285670
  62.4406860   3.6994000  65.9630260  55.2731140  11.0866250  66.4877910
  54.7352230  11.8112310  66.1686610  55.5265100  10.6096590  65.6975250
  58.1293350  12.3217460  66.7464560  58.0552050  13.2252600  67.0536930
  57.2272190  12.0029360  66.7186630  58.6778680  11.4875970  54.3690920
  59.5729470  11.8260940  54.3909680  58.7096310  10.7655380  53.7415200
  52.3174840   6.8603020  52.5977920  52.7549710   7.4032690  53.2535500
  52.8022570   6.0349970  52.6074260  49.5320640   9.6492050  60.0498180
  49.8623650   8.7813110  59.8176820  49.9611640   9.8550570  60.8803140
  54.1282560   7.9801060  57.7100150  53.8278100   7.8566030  58.6104060
  54.0220050   7.1209650  57.3015880  50.0210850  10.5162640  62.7879810
  49.5841840  10.6963440  63.6203960  50.5888530  11.2737260  62.6461530
  65.6573030  10.0179640  67.0757120  65.0575020  10.0772200  66.3321040
  65.7866930   9.0784620  67.2053970  66.8974480   7.7597460  52.4126830
  66.0667440   7.8274110  52.8834060  67.0746310   8.6501580  52.1093690
  66.3530940   4.5044940  54.9161030  67.1149850   5.0741590  55.0220720
  66.3685310   3.9372140  55.6869340  49.8535280   3.0282870  59.1468690
  49.1984120   2.7594510  58.5028390  50.6913230   2.9187350  58.6970670
  67.3590910   5.3595040  59.7602960  67.7299740   4.5762360  59.3538930
  67.9992840   6.0484140  59.5820260  64.3424670   6.7431620  65.1733280
  63.5284510   7.1728780  65.4359070  64.7498870   7.3550030  64.5602330
  66.4050110   4.7979310  52.0733550  66.6798950   5.7058190  51.9452770
  66.2160850   4.7341840  53.0095540  66.3015450   2.7348300  57.0662980
  65.9259050   1.9676230  56.6344270  65.5718570   3.1171000  57.5537910
  50.8911210   3.4135440  63.6872030  51.2584250   3.3262840  64.5668050
  50.3222030   2.6501990  63.5878890  65.6915070   1.8819820  66.7002500
  65.4601160   1.6532570  65.8000450  65.9519620   2.8019370  66.6547390
  64.4000720  11.4950220  58.7001550  64.9959790  11.1734790  58.0235970
  64.6578870  11.0222040  59.4914820  52.3063290   7.9268130  68.8492180
  52.2632920   7.5561040  69.7306640  52.4374300   8.8645700  68.9894000
  56.0069320   9.4827720  64.4501900  55.7660680   9.7502280  63.5632420
  56.9471960   9.6533450  64.5052760  67.2673480  11.5022100  65.2512540
  66.7731760  11.8990970  64.5339670  66.6586770  10.8771310  65.6449820
  52.1451320  10.8730380  65.9689960  51.5511640  10.7415080  66.7080000
  52.1375160  10.0368520  65.5032060  64.9512930  12.1445520  62.5299280
  64.4915900  12.8961330  62.1557300  64.3225390  11.4251990  62.4714080
  51.7763550   8.2388760  64.9198000  51.0497610   7.6194050  64.8523950
  51.8372700   8.6329370  64.0496080  55.3808650  10.4533760  61.7047410
  55.8973670   9.8421120  61.1795670  56.0306030  10.9562540  62.1958420
  58.1204150  11.3442250  62.5316390  58.4081960  11.0896550  61.6549400
  58.6327370  10.7919610  63.1221960  50.0593550  11.5563150  58.1294760
  49.8915590  10.9233830  58.8276650  49.1928060  11.7622550  57.7788950
  51.6656250  10.2496380  55.5744900  51.1403870  10.6304410  54.8706860
  51.5900830  10.8747150  56.2954610  58.1876510  12.2658350  69.8984590
  59.1143820  12.0302620  69.9420550  58.1726940  13.0930350  69.4170620
  66.4221570  11.8083920  56.8958840  66.5973760  11.1221660  56.2519760
  65.7243140  12.3330970  56.5035510  54.2649220  12.1978760  54.4494150
  54.9968040  11.9138040  53.9018040  54.5242890  11.9592040  55.3393530
  53.4264010   8.3143490  54.4540480  52.7972890   8.7828590  55.0026310
  53.5411840   7.4692710  54.8886670  64.7554070  11.4928210  69.7225630
  65.5479390  10.9977440  69.5151590  65.0487220  12.1718350  70.3301240
  60.8813730   2.3649150  40.6041680  60.8007780   1.4503760  40.3333390
  60.4678150   2.8616220  39.8981390  59.0131770   4.1428170  42.4850950
  58.2373870   3.6628610  42.7749520  59.6644700   3.4633820  42.3107110
  53.0297600   4.4547980  43.3626710  52.1982480   4.1996690  43.7623220
  53.6378580   4.5258750  44.0984630  63.0339200   8.5488360  41.2650080
  62.5720730   7.7775600  41.5937250  63.8464750   8.5754430  41.7702530
  53.0098860   8.4888070  43.5584730  53.3126900   7.5985810  43.3794950
  53.7542450   9.0458290  43.3306980  49.4022560   2.0155520  43.0308800
  49.9738670   1.2477720  43.0312440  49.4024100   2.3144280  42.1215410
  59.2602510  10.8346370  40.8854070  58.6413950  11.2903870  40.3148510
  60.1154290  10.9897830  40.4843770  58.4540760   6.8185360  42.4921110
  58.3849040   5.8775300  42.3310240  59.2160620   6.9086770  43.0643680
  60.1265860   5.7185610  38.2785980  59.5083130   6.1835060  37.7148700
  60.6389110   6.4113090  38.6955490  54.9897620   5.2461480  44.9569580
  54.6567000   5.8730400  45.5990650  55.1664300   5.7723360  44.1771250
  54.2016720   7.2142280  46.7718760  54.8190720   7.8893360  46.4903210
  53.3409840   7.6230260  46.6806260  49.4949060   6.4042140  35.6525610
  49.1177040   6.8929240  34.9210510  49.7522130   7.0767420  36.2832140
  65.1194310   8.6781690  44.6873400  64.4357830   9.3480800  44.6790070
  65.6588600   8.8762340  43.9218260  62.6553050  10.5225820  43.4018580
  62.6680210  10.1188110  42.5340840  62.1028270  11.2973110  43.2980010
  63.9498470   7.2442040  38.4908750  63.8394800   6.3016370  38.6158170
  63.9466720   7.6057680  39.3771510  62.0538490   5.4255660  44.7301190
  62.4707280   5.2115770  43.8954650  62.7778310   5.6828450  45.3009810
  59.4918750   2.8707360  37.8471240  58.5648030   2.8044740  38.0759710
  59.6443570   3.8087490  37.7326480  66.0000590   3.8242880  44.8217430
  65.1719220   3.8935970  44.3467560  66.5951070   4.4097190  44.3533260
  63.5216040   4.4327660  38.3506490  62.9028460   4.0947210  37.7032790
  63.5040490   3.7887420  39.0585680  55.0975390   3.3972100  40.6290970
  54.6932390   2.6849350  40.1336870  55.1838510   3.0525340  41.5179010
  55.5657090   7.0839660  42.7930180  55.2685380   6.4785130  42.1137960
  56.5156910   7.1216970  42.6819540  63.6542700  10.6571530  46.4553280
  63.1773260  11.4643720  46.2625890  62.9704490  10.0049860  46.6079490
  54.6575520   6.8221350  49.4437980  53.7604050   7.0461320  49.6911380
  54.6828390   6.9456290  48.4949380  61.6980740   3.6714470  35.3579240
  62.1374020   2.8336900  35.2117060  62.4109160   4.3043870  35.4443380
  53.4846740   3.6934670  48.0195350  53.3454510   4.5657470  48.3882750
  52.6028100   3.3507480  47.8743290  59.8076120   8.6110540  39.3260480
  60.2472030   9.3534870  38.9115870  59.7463010   8.8537110  40.2499440
  55.2827090   9.6356370  50.2280500  55.2542520  10.0399320  49.3608930
  55.1192060   8.7066730  50.0652100  51.7980020   2.2917080  38.1297620
  51.6777620   3.0179170  37.5178890  51.4880910   1.5219990  37.6525530
  67.2341910  10.4183470  51.5244670  67.7101630  10.8966360  52.2033750
  67.8549070  10.3500960  50.7990170  49.4365390   5.4632220  43.9366260
  49.5145810   5.5980990  42.9921980  50.0507070   4.7548110  44.1294380
  50.6813020   7.1632410  40.3472440  50.2741100   7.3047000  39.4926040
  51.5726030   6.8792570  40.1443650  66.6375160   7.6096320  48.6844680
  66.7638220   7.3708200  47.7661860  66.6796540   6.7780860  49.1566760
  60.4991900  11.3124320  47.2539490  61.0136570  11.2232330  48.0561920
  59.6560980  11.6584020  47.5467400  62.4746300  11.5979660  36.6823490
  62.3147440  11.3082600  37.5805320  62.3093010  10.8219790  36.1468720
  54.9534680  11.3778190  38.4595110  54.7777160  10.4613730  38.2462910
  54.0990420  11.7365480  38.6992910  62.1772430   9.1067220  35.2421490
  61.4837590   9.1044510  34.5823770  62.9195290   8.6826540  34.8115660
  61.7422360  10.7329930  39.3169980  62.1979310   9.9519310  39.6308600
  62.0814880  11.4436750  39.8611160  49.4924910   6.5046390  46.4760720
  49.6555950   6.0351750  45.6580090  49.9577360   5.9969950  47.1409560
  60.4775670   1.9918380  43.9647250  59.7456790   2.5005190  44.3137350
  60.0800010   1.1748360  43.6636030  55.9894710   1.9785800  34.7589800
  55.4211610   1.5304050  34.1325710  56.6983710   2.3378580  34.2254950
  51.0663890   5.8797820  48.6356530  50.6818680   5.2391490  49.2339490
  51.3776080   6.5833940  49.2051260  57.2161030   2.7274360  44.1165150
  57.5831160   2.2532930  44.8626490  57.0266090   3.6015930  44.4573490
  55.0060400   1.7683000  46.4349360  54.7017470   2.6474980  46.6599720
  55.9606860   1.8282790  46.4706800  53.5342190   5.9743990  37.0316210
  52.7604450   5.4341610  36.8714930  54.2636820   5.4550600  36.6933970
  64.2930170   4.9709350  42.8242600  65.0129290   5.4664640  42.4338710
  64.0911990   4.2927240  42.1796470  59.6748970   5.0418410  48.7111600
  59.6086280   4.1214080  48.4569190  59.0454110   5.1393850  49.4256240
  53.5779590   5.6424370  40.6695020  54.0958260   4.8392630  40.6151910
  53.1263610   5.5803510  41.5111850  58.4649090   6.9090650  35.9422320
  58.8064790   7.6532880  35.4465640  57.6361800   7.2221770  36.3047150
  51.0624130   2.6085740  47.5820720  50.7039070   3.2739590  48.1694060
  50.7678690   1.7769290  47.9533340  54.2637250   3.0669980  50.4660270
  53.9637390   3.2127160  49.5688090  55.0348490   2.5075270  50.3733660
  59.6065700   7.8638980  48.4615400  59.6210240   6.9319940  48.2434310
  58.8990800   7.9498740  49.1005170  64.7402770   2.0478800  34.7314010
  64.6566490   2.4793020  33.8810450  65.4596960   2.5077150  35.1640830
  65.8176910   4.5046320  47.8083980  65.0925100   5.0975100  47.6113370
  66.3452370   4.4969860  47.0097350  65.7690020   8.9021060  37.4596140
  65.1266180   8.2476680  37.7339860  65.3820680   9.3076150  36.6836810
  61.3476500   6.2306490  41.3067830  61.7000320   5.6334620  40.6469200
  60.4638830   5.9050720  41.4776080  57.4339780   6.9904180  38.7138240
  58.1210910   7.5373390  39.0945830  56.6472200   7.5344910  38.7487850
  49.5732180   2.6077000  34.2055320  50.4427030   2.8901800  34.4891240
  49.0822500   3.4212870  34.0904130  56.7366990   3.9950210  38.3263600
  57.1929770   4.8055460  38.5523790  56.3855200   3.6773350  39.1582090
  59.0399600   9.5056550  45.5555900  59.6841820   9.7115930  46.2329320
  59.4029040   8.7444950  45.1026750  60.3131680   7.5088900  44.2733350
  60.9553910   6.8082060  44.3865520  60.8381030   8.2887340  44.0930240
  64.1587400   7.7937520  33.9972490  63.9324980   7.0767960  34.5897130
  63.7683600   7.5449960  33.1594240  62.0869300   8.3083800  47.4769410
  62.4225540   8.8950490  48.1547330  61.1669640   8.1776510  47.7067200
  49.9403430  11.8204380  34.7716950  50.3001070  12.4193720  34.1174220
  49.7995770  12.3664270  35.5451980  63.7403650   5.7109460  35.6586650
  63.4525350   6.1722150  36.4464530  64.5355820   5.2507230  35.9270870
  49.9245290  10.0859240  49.2459350  50.0336410   9.1453980  49.1054740
  49.2725850  10.3513990  48.5973080  57.9157880   8.3575130  50.6457470
  57.5954750   7.6384370  51.1903160  57.2416240   9.0330200  50.7193530
  55.9572050   9.2035580  35.5890620  55.9482150   9.9365270  34.9735130
  55.0370410   8.9567160  35.6817580  51.5578690   4.4250470  36.3337380
  50.9506640   5.1649370  36.3432680  52.0328040   4.5149830  35.5075580
  58.9431650   9.2663820  34.2515810  59.0443630   9.0627810  33.3217790
  58.0433390   9.0122100  34.4563590  57.5849760  11.7850140  38.9463480
  57.8391260  11.7471530  38.0242850  56.6362240  11.6583470  38.9391730
  63.5902340   2.7042020  40.5221990  62.6492480   2.7192250  40.6969680
  63.9046410   1.9177980  40.9682290  53.5683980   4.3861620  34.0825950
  54.3347250   4.2742980  34.6451380  53.6458670   3.6899590  33.4302720
  65.5927920   9.8750870  42.1976250  65.7175340  10.6982040  42.6700060
  66.4593480   9.6641600  41.8500400  53.0645450  11.9682080  41.8693380
  53.8007930  11.4197540  42.1401950  53.4486370  12.8338090  41.7299370
  49.9490930   8.0355650  37.7434890  49.0230710   8.2776790  37.7340300
  50.4147360   8.8629910  37.6219640  52.0703730  11.1528150  51.0578960
  52.8716460  11.4740200  51.4714360  51.5555550  10.7923730  51.7798870
  56.1747760  11.1412390  33.6918950  56.9676370  11.4301220  33.2400740
  55.6552110  10.7104560  33.0131430  60.9068360   7.2608020  51.0054370
  60.3006520   7.2839620  50.2650120  60.6022470   6.5291060  51.5421620
  62.3368730  10.9888310  49.6163780  63.2890480  10.9046330  49.5664020
  62.1896950  11.6530020  50.2897570  65.2277930  10.3682520  35.1155690
  64.9419440   9.9547660  34.3009870  65.0297480  11.2970230  34.9956210
  49.7901540   3.6401610  50.0015010  50.2940560   3.0608890  50.5731240
  49.0508960   3.9241840  50.5391380  56.6925160   6.3615800  33.5561300
  56.5875800   5.7468150  34.2822680  56.5249380   5.8381690  32.7724310
  56.8439480   5.0472600  49.5350530  56.0785150   5.6157600  49.4505200
  57.0255440   4.7548810  48.6418760  59.9327890   5.4235830  34.1603290
  59.3837990   5.8705130  34.8046030  60.5547150   4.9185080  34.6840960
  63.9862830   6.7777930  50.0925550  64.7272300   7.1153690  49.5893010
  63.2235510   6.9469990  49.5395320  51.8224620   1.7831200  50.8965080
  51.8629960   1.4845070  51.8050310  52.6770120   2.1838810  50.7372600
  55.6003010   4.3826750  36.0568590  56.0219430   4.2166620  36.8999980
  55.7253850   3.5726980  35.5623730  58.1130650   3.4064360  33.3045690
  58.6336310   2.6913380  32.9386840  58.7599050   4.0450230  33.6046200
  62.6608490   4.8292760  48.6280760  63.0749510   4.9837840  49.4771180
  61.7259490   4.9547980  48.7906540  63.1330660   2.1688920  50.6319910
  63.7151430   1.4141240  50.5440390  63.3092430   2.6996360  49.8551390
  57.4223720   4.7813240  46.5976690  57.8411830   5.6245970  46.4252930
  56.5032350   4.9185280  46.3683470  59.7587620   2.5129420  47.9814530
  59.8783830   1.9170560  48.7209370  60.6181620   2.5499110  47.5615830
  62.0975520   3.0666610  46.5577040  61.5710740   3.5909230  45.9542180
  62.4406860   3.6994000  47.1886770  55.2731140  11.0866250  47.7134420
  54.7352230  11.8112310  47.3943120  55.5265100  10.6096590  46.9231760
  58.1293350  12.3217460  47.9721070  58.0552050  13.2252600  48.2793440
  57.2272190  12.0029360  47.9443140  58.6778680  11.4875970  35.5947430
  59.5729470  11.8260940  35.6166190  58.7096310  10.7655380  34.9671710
  52.3174840   6.8603020  33.8234430  52.7549710   7.4032690  34.4792010
  52.8022570   6.0349970  33.8330770  49.5320640   9.6492050  41.2754690
  49.8623650   8.7813110  41.0433330  49.9611640   9.8550570  42.1059650
  54.1282560   7.9801060  38.9356660  53.8278100   7.8566030  39.8360570
  54.0220050   7.1209650  38.5272390  50.0210850  10.5162640  44.0136320
  49.5841840  10.6963440  44.8460470  50.5888530  11.2737260  43.8718040
  65.6573030  10.0179640  48.3013630  65.0575020  10.0772200  47.5577550
  65.7866930   9.0784620  48.4310480  66.8974480   7.7597460  33.6383340
  66.0667440   7.8274110  34.1090570  67.0746310   8.6501580  33.3350200
  66.3530940   4.5044940  36.1417540  67.1149850   5.0741590  36.2477230
  66.3685310   3.9372140  36.9125850  49.8535280   3.0282870  40.3725200
  49.1984120   2.7594510  39.7284900  50.6913230   2.9187350  39.9227180
  67.3590910   5.3595040  40.9859470  67.7299740   4.5762360  40.5795440
  67.9992840   6.0484140  40.8076770  64.3424670   6.7431620  46.3989790
  63.5284510   7.1728780  46.6615580  64.7498870   7.3550030  45.7858840
  66.4050110   4.7979310  33.2990060  66.6798950   5.7058190  33.1709280
  66.2160850   4.7341840  34.2352050  66.3015450   2.7348300  38.2919490
  65.9259050   1.9676230  37.8600780  65.5718570   3.1171000  38.7794420
  50.8911210   3.4135440  44.9128540  51.2584250   3.3262840  45.7924560
  50.3222030   2.6501990  44.8135400  65.6915070   1.8819820  47.9259010
  65.4601160   1.6532570  47.0256960  65.9519620   2.8019370  47.8803900
  64.4000720  11.4950220  39.9258060  64.9959790  11.1734790  39.2492480
  64.6578870  11.0222040  40.7171330  52.3063290   7.9268130  50.0748690
  52.2632920   7.5561040  50.9563150  52.4374300   8.8645700  50.2150510
  56.0069320   9.4827720  45.6758410  55.7660680   9.7502280  44.7888930
  56.9471960   9.6533450  45.7309270  67.2673480  11.5022100  46.4769050
  66.7731760  11.8990970  45.7596180  66.6586770  10.8771310  46.8706330
  52.1451320  10.8730380  47.1946470  51.5511640  10.7415080  47.9336510
  52.1375160  10.0368520  46.7288570  64.9512930  12.1445520  43.7555790
  64.4915900  12.8961330  43.3813810  64.3225390  11.4251990  43.6970590
  51.7763550   8.2388760  46.1454510  51.0497610   7.6194050  46.0780460
  51.8372700   8.6329370  45.2752590  55.3808650  10.4533760  42.9303920
  55.8973670   9.8421120  42.4052180  56.0306030  10.9562540  43.4214930
  58.1204150  11.3442250  43.7572900  58.4081960  11.0896550  42.8805910
  58.6327370  10.7919610  44.3478470  50.0593550  11.5563150  39.3551270
  49.8915590  10.9233830  40.0533160  49.1928060  11.7622550  39.0045460
  51.6656250  10.2496380  36.8001410  51.1403870  10.6304410  36.0963370
  51.5900830  10.8747150  37.5211120  58.1876510  12.2658350  51.1241100
  59.1143820  12.0302620  51.1677060  58.1726940  13.0930350  50.6427130
  66.4221570  11.8083920  38.1215350  66.5973760  11.1221660  37.4776270
  65.7243140  12.3330970  37.7292020  54.2649220  12.1978760  35.6750660
  54.9968040  11.9138040  35.1274550  54.5242890  11.9592040  36.5650040
  53.4264010   8.3143490  35.6796990  52.7972890   8.7828590  36.2282820
  53.5411840   7.4692710  36.1143180  64.7554070  11.4928210  50.9482140
  65.5479390  10.9977440  50.7408100  65.0487220  12.1718350  51.5557750
  60.8813730   2.3649150  21.8298190  60.8007780   1.4503760  21.5589900
  60.4678150   2.8616220  21.1237900  59.0131770   4.1428170  23.7107460
  58.2373870   3.6628610  24.0006030  59.6644700   3.4633820  23.5363620
  53.0297600   4.4547980  24.5883220  52.1982480   4.1996690  24.9879730
  53.6378580   4.5258750  25.3241140  63.0339200   8.5488360  22.4906590
  62.5720730   7.7775600  22.8193760  63.8464750   8.5754430  22.9959040
  53.0098860   8.4888070  24.7841240  53.3126900   7.5985810  24.6051460
  53.7542450   9.0458290  24.5563490  49.4022560   2.0155520  24.2565310
  49.9738670   1.2477720  24.2568950  49.4024100   2.3144280  23.3471920
  59.2602510  10.8346370  22.1110580  58.6413950  11.2903870  21.5405020
  60.1154290  10.9897830  21.7100280  58.4540760   6.8185360  23.7177620
  58.3849040   5.8775300  23.5566750  59.2160620   6.9086770  24.2900190
  60.1265860   5.7185610  19.5042490  59.5083130   6.1835060  18.9405210
  60.6389110   6.4113090  19.9212000  54.9897620   5.2461480  26.1826090
  54.6567000   5.8730400  26.8247160  55.1664300   5.7723360  25.4027760
  54.2016720   7.2142280  27.9975270  54.8190720   7.8893360  27.7159720
  53.3409840   7.6230260  27.9062770  49.4949060   6.4042140  16.8782120
  49.1177040   6.8929240  16.1467020  49.7522130   7.0767420  17.5088650
  65.1194310   8.6781690  25.9129910  64.4357830   9.3480800  25.9046580
  65.6588600   8.8762340  25.1474770  62.6553050  10.5225820  24.6275090
  62.6680210  10.1188110  23.7597350  62.1028270  11.2973110  24.5236520
  63.9498470   7.2442040  19.7165260  63.8394800   6.3016370  19.8414680
  63.9466720   7.6057680  20.6028020  62.0538490   5.4255660  25.9557700
  62.4707280   5.2115770  25.1211160  62.7778310   5.6828450  26.5266320
  59.4918750   2.8707360  19.0727750  58.5648030   2.8044740  19.3016220
  59.6443570   3.8087490  18.9582990  66.0000590   3.8242880  26.0473940
  65.1719220   3.8935970  25.5724070  66.5951070   4.4097190  25.5789770
  63.5216040   4.4327660  19.5763000  62.9028460   4.0947210  18.9289300
  63.5040490   3.7887420  20.2842190  55.0975390   3.3972100  21.8547480
  54.6932390   2.6849350  21.3593380  55.1838510   3.0525340  22.7435520
  55.5657090   7.0839660  24.0186690  55.2685380   6.4785130  23.3394470
  56.5156910   7.1216970  23.9076050  63.6542700  10.6571530  27.6809790
  63.1773260  11.4643720  27.4882400  62.9704490  10.0049860  27.8336000
  54.6575520   6.8221350  30.6694490  53.7604050   7.0461320  30.9167890
  54.6828390   6.9456290  29.7205890  61.6980740   3.6714470  16.5835750
  62.1374020   2.8336900  16.4373570  62.4109160   4.3043870  16.6699890
  53.4846740   3.6934670  29.2451860  53.3454510   4.5657470  29.6139260
  52.6028100   3.3507480  29.0999800  59.8076120   8.6110540  20.5516990
  60.2472030   9.3534870  20.1372380  59.7463010   8.8537110  21.4755950
  55.2827090   9.6356370  31.4537010  55.2542520  10.0399320  30.5865440
  55.1192060   8.7066730  31.2908610  51.7980020   2.2917080  19.3554130
  51.6777620   3.0179170  18.7435400  51.4880910   1.5219990  18.8782040
  67.2341910  10.4183470  32.7501180  67.7101630  10.8966360  33.4290260
  67.8549070  10.3500960  32.0246680  49.4365390   5.4632220  25.1622770
  49.5145810   5.5980990  24.2178490  50.0507070   4.7548110  25.3550890
  50.6813020   7.1632410  21.5728950  50.2741100   7.3047000  20.7182550
  51.5726030   6.8792570  21.3700160  66.6375160   7.6096320  29.9101190
  66.7638220   7.3708200  28.9918370  66.6796540   6.7780860  30.3823270
  60.4991900  11.3124320  28.4796000  61.0136570  11.2232330  29.2818430
  59.6560980  11.6584020  28.7723910  62.4746300  11.5979660  17.9080000
  62.3147440  11.3082600  18.8061830  62.3093010  10.8219790  17.3725230
  54.9534680  11.3778190  19.6851620  54.7777160  10.4613730  19.4719420
  54.0990420  11.7365480  19.9249420  62.1772430   9.1067220  16.4678000
  61.4837590   9.1044510  15.8080280  62.9195290   8.6826540  16.0372170
  61.7422360  10.7329930  20.5426490  62.1979310   9.9519310  20.8565110
  62.0814880  11.4436750  21.0867670  49.4924910   6.5046390  27.7017230
  49.6555950   6.0351750  26.8836600  49.9577360   5.9969950  28.3666070
  60.4775670   1.9918380  25.1903760  59.7456790   2.5005190  25.5393860
  60.0800010   1.1748360  24.8892540  55.9894710   1.9785800  15.9846310
  55.4211610   1.5304050  15.3582220  56.6983710   2.3378580  15.4511460
  51.0663890   5.8797820  29.8613040  50.6818680   5.2391490  30.4596000
  51.3776080   6.5833940  30.4307770  57.2161030   2.7274360  25.3421660
  57.5831160   2.2532930  26.0883000  57.0266090   3.6015930  25.6830000
  55.0060400   1.7683000  27.6605870  54.7017470   2.6474980  27.8856230
  55.9606860   1.8282790  27.6963310  53.5342190   5.9743990  18.2572720
  52.7604450   5.4341610  18.0971440  54.2636820   5.4550600  17.9190480
  64.2930170   4.9709350  24.0499110  65.0129290   5.4664640  23.6595220
  64.0911990   4.2927240  23.4052980  59.6748970   5.0418410  29.9368110
  59.6086280   4.1214080  29.6825700  59.0454110   5.1393850  30.6512750
  53.5779590   5.6424370  21.8951530  54.0958260   4.8392630  21.8408420
  53.1263610   5.5803510  22.7368360  58.4649090   6.9090650  17.1678830
  58.8064790   7.6532880  16.6722150  57.6361800   7.2221770  17.5303660
  51.0624130   2.6085740  28.8077230  50.7039070   3.2739590  29.3950570
  50.7678690   1.7769290  29.1789850  54.2637250   3.0669980  31.6916780
  53.9637390   3.2127160  30.7944600  55.0348490   2.5075270  31.5990170
  59.6065700   7.8638980  29.6871910  59.6210240   6.9319940  29.4690820
  58.8990800   7.9498740  30.3261680  64.7402770   2.0478800  15.9570520
  64.6566490   2.4793020  15.1066960  65.4596960   2.5077150  16.3897340
  65.8176910   4.5046320  29.0340490  65.0925100   5.0975100  28.8369880
  66.3452370   4.4969860  28.2353860  65.7690020   8.9021060  18.6852650
  65.1266180   8.2476680  18.9596370  65.3820680   9.3076150  17.9093320
  61.3476500   6.2306490  22.5324340  61.7000320   5.6334620  21.8725710
  60.4638830   5.9050720  22.7032590  57.4339780   6.9904180  19.9394750
  58.1210910   7.5373390  20.3202340  56.6472200   7.5344910  19.9744360
  49.5732180   2.6077000  15.4311830  50.4427030   2.8901800  15.7147750
  49.0822500   3.4212870  15.3160640  56.7366990   3.9950210  19.5520110
  57.1929770   4.8055460  19.7780300  56.3855200   3.6773350  20.3838600
  59.0399600   9.5056550  26.7812410  59.6841820   9.7115930  27.4585830
  59.4029040   8.7444950  26.3283260  60.3131680   7.5088900  25.4989860
  60.9553910   6.8082060  25.6122030  60.8381030   8.2887340  25.3186750
  64.1587400   7.7937520  15.2229000  63.9324980   7.0767960  15.8153640
  63.7683600   7.5449960  14.3850750  62.0869300   8.3083800  28.7025920
  62.4225540   8.8950490  29.3803840  61.1669640   8.1776510  28.9323710
  49.9403430  11.8204380  15.9973460  50.3001070  12.4193720  15.3430730
  49.7995770  12.3664270  16.7708490  63.7403650   5.7109460  16.8843160
  63.4525350   6.1722150  17.6721040  64.5355820   5.2507230  17.1527380
  49.9245290  10.0859240  30.4715860  50.0336410   9.1453980  30.3311250
  49.2725850  10.3513990  29.8229590  57.9157880   8.3575130  31.8713980
  57.5954750   7.6384370  32.4159670  57.2416240   9.0330200  31.9450040
  55.9572050   9.2035580  16.8147130  55.9482150   9.9365270  16.1991640
  55.0370410   8.9567160  16.9074090  51.5578690   4.4250470  17.5593890
  50.9506640   5.1649370  17.5689190  52.0328040   4.5149830  16.7332090
  58.9431650   9.2663820  15.4772320  59.0443630   9.0627810  14.5474300
  58.0433390   9.0122100  15.6820100  57.5849760  11.7850140  20.1719990
  57.8391260  11.7471530  19.2499360  56.6362240  11.6583470  20.1648240
  63.5902340   2.7042020  21.7478500  62.6492480   2.7192250  21.9226190
  63.9046410   1.9177980  22.1938800  53.5683980   4.3861620  15.3082460
  54.3347250   4.2742980  15.8707890  53.6458670   3.6899590  14.6559230
  65.5927920   9.8750870  23.4232760  65.7175340  10.6982040  23.8956570
  66.4593480   9.6641600  23.0756910  53.0645450  11.9682080  23.0949890
  53.8007930  11.4197540  23.3658460  53.4486370  12.8338090  22.9555880
  49.9490930   8.0355650  18.9691400  49.0230710   8.2776790  18.9596810
  50.4147360   8.8629910  18.8476150  52.0703730  11.1528150  32.2835470
  52.8716460  11.4740200  32.6970870  51.5555550  10.7923730  33.0055380
  56.1747760  11.1412390  14.9175460  56.9676370  11.4301220  14.4657250
  55.6552110  10.7104560  14.2387940  60.9068360   7.2608020  32.2310880
  60.3006520   7.2839620  31.4906630  60.6022470   6.5291060  32.7678130
  62.3368730  10.9888310  30.8420290  63.2890480  10.9046330  30.7920530
  62.1896950  11.6530020  31.5154080  65.2277930  10.3682520  16.3412200
  64.9419440   9.9547660  15.5266380  65.0297480  11.2970230  16.2212720
  49.7901540   3.6401610  31.2271520  50.2940560   3.0608890  31.7987750
  49.0508960   3.9241840  31.7647890  56.6925160   6.3615800  14.7817810
  56.5875800   5.7468150  15.5079190  56.5249380   5.8381690  13.9980820
  56.8439480   5.0472600  30.7607040  56.0785150   5.6157600  30.6761710
  57.0255440   4.7548810  29.8675270  59.9327890   5.4235830  15.3859800
  59.3837990   5.8705130  16.0302540  60.5547150   4.9185080  15.9097470
  63.9862830   6.7777930  31.3182060  64.7272300   7.1153690  30.8149520
  63.2235510   6.9469990  30.7651830  51.8224620   1.7831200  32.1221590
  51.8629960   1.4845070  33.0306820  52.6770120   2.1838810  31.9629110
  55.6003010   4.3826750  17.2825100  56.0219430   4.2166620  18.1256490
  55.7253850   3.5726980  16.7880240  58.1130650   3.4064360  14.5302200
  58.6336310   2.6913380  14.1643350  58.7599050   4.0450230  14.8302710
  62.6608490   4.8292760  29.8537270  63.0749510   4.9837840  30.7027690
  61.7259490   4.9547980  30.0163050  63.1330660   2.1688920  31.8576420
  63.7151430   1.4141240  31.7696900  63.3092430   2.6996360  31.0807900
  57.4223720   4.7813240  27.8233200  57.8411830   5.6245970  27.6509440
  56.5032350   4.9185280  27.5939980  59.7587620   2.5129420  29.2071040
  59.8783830   1.9170560  29.9465880  60.6181620   2.5499110  28.7872340
  62.0975520   3.0666610  27.7833550  61.5710740   3.5909230  27.1798690
  62.4406860   3.6994000  28.4143280  55.2731140  11.0866250  28.9390930
  54.7352230  11.8112310  28.6199630  55.5265100  10.6096590  28.1488270
  58.1293350  12.3217460  29.1977580  58.0552050  13.2252600  29.5049950
  57.2272190  12.0029360  29.1699650  58.6778680  11.4875970  16.8203940
  59.5729470  11.8260940  16.8422700  58.7096310  10.7655380  16.1928220
  52.3174840   6.8603020  15.0490940  52.7549710   7.4032690  15.7048520
  52.8022570   6.0349970  15.0587280  49.5320640   9.6492050  22.5011200
  49.8623650   8.7813110  22.2689840  49.9611640   9.8550570  23.3316160
  54.1282560   7.9801060  20.1613170  53.8278100   7.8566030  21.0617080
  54.0220050   7.1209650  19.7528900  50.0210850  10.5162640  25.2392830
  49.5841840  10.6963440  26.0716980  50.5888530  11.2737260  25.0974550
  65.6573030  10.0179640  29.5270140  65.0575020  10.0772200  28.7834060
  65.7866930   9.0784620  29.6566990  66.8974480   7.7597460  14.8639850
  66.0667440   7.8274110  15.3347080  67.0746310   8.6501580  14.5606710
  66.3530940   4.5044940  17.3674050  67.1149850   5.0741590  17.4733740
  66.3685310   3.9372140  18.1382360  49.8535280   3.0282870  21.5981710
  49.1984120   2.7594510  20.9541410  50.6913230   2.9187350  21.1483690
  67.3590910   5.3595040  22.2115980  67.7299740   4.5762360  21.8051950
  67.9992840   6.0484140  22.0333280  64.3424670   6.7431620  27.6246300
  63.5284510   7.1728780  27.8872090  64.7498870   7.3550030  27.0115350
  66.4050110   4.7979310  14.5246570  66.6798950   5.7058190  14.3965790
  66.2160850   4.7341840  15.4608560  66.3015450   2.7348300  19.5176000
  65.9259050   1.9676230  19.0857290  65.5718570   3.1171000  20.0050930
  50.8911210   3.4135440  26.1385050  51.2584250   3.3262840  27.0181070
  50.3222030   2.6501990  26.0391910  65.6915070   1.8819820  29.1515520
  65.4601160   1.6532570  28.2513470  65.9519620   2.8019370  29.1060410
  64.4000720  11.4950220  21.1514570  64.9959790  11.1734790  20.4748990
  64.6578870  11.0222040  21.9427840  52.3063290   7.9268130  31.3005200
  52.2632920   7.5561040  32.1819660  52.4374300   8.8645700  31.4407020
  56.0069320   9.4827720  26.9014920  55.7660680   9.7502280  26.0145440
  56.9471960   9.6533450  26.9565780  67.2673480  11.5022100  27.7025560
  66.7731760  11.8990970  26.9852690  66.6586770  10.8771310  28.0962840
  52.1451320  10.8730380  28.4202980  51.5511640  10.7415080  29.1593020
  52.1375160  10.0368520  27.9545080  64.9512930  12.1445520  24.9812300
  64.4915900  12.8961330  24.6070320  64.3225390  11.4251990  24.9227100
  51.7763550   8.2388760  27.3711020  51.0497610   7.6194050  27.3036970
  51.8372700   8.6329370  26.5009100  55.3808650  10.4533760  24.1560430
  55.8973670   9.8421120  23.6308690  56.0306030  10.9562540  24.6471440
  58.1204150  11.3442250  24.9829410  58.4081960  11.0896550  24.1062420
  58.6327370  10.7919610  25.5734980  50.0593550  11.5563150  20.5807780
  49.8915590  10.9233830  21.2789670  49.1928060  11.7622550  20.2301970
  51.6656250  10.2496380  18.0257920  51.1403870  10.6304410  17.3219880
  51.5900830  10.8747150  18.7467630  58.1876510  12.2658350  32.3497610
  59.1143820  12.0302620  32.3933570  58.1726940  13.0930350  31.8683640
  66.4221570  11.8083920  19.3471860  66.5973760  11.1221660  18.7032780
  65.7243140  12.3330970  18.9548530  54.2649220  12.1978760  16.9007170
  54.9968040  11.9138040  16.3531060  54.5242890  11.9592040  17.7906550
  53.4264010   8.3143490  16.9053500  52.7972890   8.7828590  17.4539330
  53.5411840   7.4692710  17.3399690  64.7554070  11.4928210  32.1738650
  65.5479390  10.9977440  31.9664610  65.0487220  12.1718350  32.7814260
  60.8813730   2.3649150   3.0554700  60.8007780   1.4503760   2.7846410
  60.4678150   2.8616220   2.3494410  59.0131770   4.1428170   4.9363970
  58.2373870   3.6628610   5.2262540  59.6644700   3.4633820   4.7620130
  53.0297600   4.4547980   5.8139730  52.1982480   4.1996690   6.2136240
  53.6378580   4.5258750   6.5497650  63.0339200   8.5488360   3.7163100
  62.5720730   7.7775600   4.0450270  63.8464750   8.5754430   4.2215550
  53.0098860   8.4888070   6.0097750  53.3126900   7.5985810   5.8307970
  53.7542450   9.0458290   5.7820000  49.4022560   2.0155520   5.4821820
  49.9738670   1.2477720   5.4825460  49.4024100   2.3144280   4.5728430
  59.2602510  10.8346370   3.3367090  58.6413950  11.2903870   2.7661530
  60.1154290  10.9897830   2.9356790  58.4540760   6.8185360   4.9434130
  58.3849040   5.8775300   4.7823260  59.2160620   6.9086770   5.5156700
  54.9897620   5.2461480   7.4082600  54.6567000   5.8730400   8.0503670
  55.1664300   5.7723360   6.6284270  54.2016720   7.2142280   9.2231780
  54.8190720   7.8893360   8.9416230  53.3409840   7.6230260   9.1319280
  65.1194310   8.6781690   7.1386420  64.4357830   9.3480800   7.1303090
  65.6588600   8.8762340   6.3731280  62.6553050  10.5225820   5.8531600
  62.6680210  10.1188110   4.9853860  62.1028270  11.2973110   5.7493030
  62.0538490   5.4255660   7.1814210  62.4707280   5.2115770   6.3467670
  62.7778310   5.6828450   7.7522830  66.0000590   3.8242880   7.2730450
  65.1719220   3.8935970   6.7980580  66.5951070   4.4097190   6.8046280
  55.0975390   3.3972100   3.0803990  54.6932390   2.6849350   2.5849890
  55.1838510   3.0525340   3.9692030  55.5657090   7.0839660   5.2443200
  55.2685380   6.4785130   4.5650980  56.5156910   7.1216970   5.1332560
  63.6542700  10.6571530   8.9066300  63.1773260  11.4643720   8.7138910
  62.9704490  10.0049860   9.0592510  54.6575520   6.8221350  11.8951000
  53.7604050   7.0461320  12.1424400  54.6828390   6.9456290  10.9462400
  53.4846740   3.6934670  10.4708370  53.3454510   4.5657470  10.8395770
  52.6028100   3.3507480  10.3256310  55.2827090   9.6356370  12.6793520
  55.2542520  10.0399320  11.8121950  55.1192060   8.7066730  12.5165120
  67.2341910  10.4183470  13.9757690  67.7101630  10.8966360  14.6546770
  67.8549070  10.3500960  13.2503190  49.4365390   5.4632220   6.3879280
  49.5145810   5.5980990   5.4435000  50.0507070   4.7548110   6.5807400
  50.6813020   7.1632410   2.7985460  50.2741100   7.3047000   1.9439060
  51.5726030   6.8792570   2.5956670  66.6375160   7.6096320  11.1357700
  66.7638220   7.3708200  10.2174880  66.6796540   6.7780860  11.6079780
  60.4991900  11.3124320   9.7052510  61.0136570  11.2232330  10.5074940
  59.6560980  11.6584020   9.9980420  61.7422360  10.7329930   1.7683000
  62.1979310   9.9519310   2.0821620  62.0814880  11.4436750   2.3124180
  49.4924910   6.5046390   8.9273740  49.6555950   6.0351750   8.1093110
  49.9577360   5.9969950   9.5922580  60.4775670   1.9918380   6.4160270
  59.7456790   2.5005190   6.7650370  60.0800010   1.1748360   6.1149050
  51.0663890   5.8797820  11.0869550  50.6818680   5.2391490  11.6852510
  51.3776080   6.5833940  11.6564280  57.2161030   2.7274360   6.5678170
  57.5831160   2.2532930   7.3139510  57.0266090   3.6015930   6.9086510
  55.0060400   1.7683000   8.8862380  54.7017470   2.6474980   9.1112740
  55.9606860   1.8282790   8.9219820  64.2930170   4.9709350   5.2755620
  65.0129290   5.4664640   4.8851730  64.0911990   4.2927240   4.6309490
  59.6748970   5.0418410  11.1624620  59.6086280   4.1214080  10.9082210
  59.0454110   5.1393850  11.8769260  53.5779590   5.6424370   3.1208040
  54.0958260   4.8392630   3.0664930  53.1263610   5.5803510   3.9624870
  51.0624130   2.6085740  10.0333740  50.7039070   3.2739590  10.6207080
  50.7678690   1.7769290  10.4046360  54.2637250   3.0669980  12.9173290
  53.9637390   3.2127160  12.0201110  55.0348490   2.5075270  12.8246680
  59.6065700   7.8638980  10.9128420  59.6210240   6.9319940  10.6947330
  58.8990800   7.9498740  11.5518190  65.8176910   4.5046320  10.2597000
  65.0925100   5.0975100  10.0626390  66.3452370   4.4969860   9.4610370
  61.3476500   6.2306490   3.7580850  61.7000320   5.6334620   3.0982220
  60.4638830   5.9050720   3.9289100  59.0399600   9.5056550   8.0068920
  59.6841820   9.7115930   8.6842340  59.4029040   8.7444950   7.5539770
  60.3131680   7.5088900   6.7246370  60.9553910   6.8082060   6.8378540
  60.8381030   8.2887340   6.5443260  62.0869300   8.3083800   9.9282430
  62.4225540   8.8950490  10.6060350  61.1669640   8.1776510  10.1580220
  49.9245290  10.0859240  11.6972370  50.0336410   9.1453980  11.5567760
  49.2725850  10.3513990  11.0486100  57.9157880   8.3575130  13.0970490
  57.5954750   7.6384370  13.6416180  57.2416240   9.0330200  13.1706550
  63.5902340   2.7042020   2.9735010  62.6492480   2.7192250   3.1482700
  63.9046410   1.9177980   3.4195310  65.5927920   9.8750870   4.6489270
  65.7175340  10.6982040   5.1213080  66.4593480   9.6641600   4.3013420
  53.0645450  11.9682080   4.3206400  53.8007930  11.4197540   4.5914970
  53.4486370  12.8338090   4.1812390  52.0703730  11.1528150  13.5091980
  52.8716460  11.4740200  13.9227380  51.5555550  10.7923730  14.2311890
  60.9068360   7.2608020  13.4567390  60.3006520   7.2839620  12.7163140
  60.6022470   6.5291060  13.9934640  62.3368730  10.9888310  12.0676800
  63.2890480  10.9046330  12.0177040  62.1896950  11.6530020  12.7410590
  49.7901540   3.6401610  12.4528030  50.2940560   3.0608890  13.0244260
  49.0508960   3.9241840  12.9904400  56.8439480   5.0472600  11.9863550
  56.0785150   5.6157600  11.9018220  57.0255440   4.7548810  11.0931780
  63.9862830   6.7777930  12.5438570  64.7272300   7.1153690  12.0406030
  63.2235510   6.9469990  11.9908340  51.8224620   1.7831200  13.3478100
  51.8629960   1.4845070  14.2563330  52.6770120   2.1838810  13.1885620
  62.6608490   4.8292760  11.0793780  63.0749510   4.9837840  11.9284200
  61.7259490   4.9547980  11.2419560  63.1330660   2.1688920  13.0832930
  63.7151430   1.4141240  12.9953410  63.3092430   2.6996360  12.3064410
  57.4223720   4.7813240   9.0489710  57.8411830   5.6245970   8.8765950
  56.5032350   4.9185280   8.8196490  59.7587620   2.5129420  10.4327550
  59.8783830   1.9170560  11.1722390  60.6181620   2.5499110  10.0128850
  62.0975520   3.0666610   9.0090060  61.5710740   3.5909230   8.4055200
  62.4406860   3.6994000   9.6399790  55.2731140  11.0866250  10.1647440
  54.7352230  11.8112310   9.8456140  55.5265100  10.6096590   9.3744780
  58.1293350  12.3217460  10.4234090  58.0552050  13.2252600  10.7306460
  57.2272190  12.0029360  10.3956160  49.5320640   9.6492050   3.7267710
  49.8623650   8.7813110   3.4946350  49.9611640   9.8550570   4.5572670
  50.0210850  10.5162640   6.4649340  49.5841840  10.6963440   7.2973490
  50.5888530  11.2737260   6.3231060  65.6573030  10.0179640  10.7526650
  65.0575020  10.0772200  10.0090570  65.7866930   9.0784620  10.8823500
  49.8535280   3.0282870   2.8238220  49.1984120   2.7594510   2.1797920
  50.6913230   2.9187350   2.3740200  67.3590910   5.3595040   3.4372490
  67.7299740   4.5762360   3.0308460  67.9992840   6.0484140   3.2589790
  64.3424670   6.7431620   8.8502810  63.5284510   7.1728780   9.1128600
  64.7498870   7.3550030   8.2371860  50.8911210   3.4135440   7.3641560
  51.2584250   3.3262840   8.2437580  50.3222030   2.6501990   7.2648420
  65.6915070   1.8819820  10.3772030  65.4601160   1.6532570   9.4769980
  65.9519620   2.8019370  10.3316920  64.4000720  11.4950220   2.3771080
  64.9959790  11.1734790   1.7005500  64.6578870  11.0222040   3.1684350
  52.3063290   7.9268130  12.5261710  52.2632920   7.5561040  13.4076170
  52.4374300   8.8645700  12.6663530  56.0069320   9.4827720   8.1271430
  55.7660680   9.7502280   7.2401950  56.9471960   9.6533450   8.1822290
  67.2673480  11.5022100   8.9282070  66.7731760  11.8990970   8.2109200
  66.6586770  10.8771310   9.3219350  52.1451320  10.8730380   9.6459490
  51.5511640  10.7415080  10.3849530  52.1375160  10.0368520   9.1801590
  64.9512930  12.1445520   6.2068810  64.4915900  12.8961330   5.8326830
  64.3225390  11.4251990   6.1483610  51.7763550   8.2388760   8.5967530
  51.0497610   7.6194050   8.5293480  51.8372700   8.6329370   7.7265610
  55.3808650  10.4533760   5.3816940  55.8973670   9.8421120   4.8565200
  56.0306030  10.9562540   5.8727950  58.1204150  11.3442250   6.2085920
  58.4081960  11.0896550   5.3318930  58.6327370  10.7919610   6.7991490
  58.1876510  12.2658350  13.5754120  59.1143820  12.0302620  13.6190080
  58.1726940  13.0930350  13.0940150  64.7554070  11.4928210  13.3995160
  65.5479390  10.9977440  13.1921120  65.0487220  12.1718350  14.0070770
  42.1070240  77.4623110  96.9272150  42.0264290  76.5477720  96.6563860
  41.6934660  77.9590180  96.2211860  40.2388280  79.2402130  98.8081420
  39.4630380  78.7602570  99.0979990  40.8901210  78.5607780  98.6337580
  34.2554110  79.5521940  99.6857180  33.4238990  79.2970650 100.0853690
  34.8635090  79.6232710 100.4215100  32.6646060  74.5123830  93.4699570
  31.7762760  74.8539800  93.3679450  32.9487250  74.3124150  92.5780400
  30.6279070  77.1129480  99.3539270  31.1995180  76.3451680  99.3542910
  30.6280610  77.4118240  98.4445880  40.7102440  74.7229700  99.0420510
  41.0867260  73.8501580  98.9294180  40.6121950  75.0588400  98.1510950
  34.8407450  73.0955330  94.5037950  34.9474200  73.9959060  94.8106710
  33.9299810  73.0473300  94.2132600  44.4926560  72.2180140  95.9748850
  45.3136180  71.7276710  96.0174330  44.5260640  72.8077800  96.7280690
  32.4890610  75.0174340  99.7490540  33.1700720  75.2812710 100.3677940
  32.1738660  74.1775210 100.0828550  36.6815180  76.0641700  98.8363130
  37.1893400  76.5622670  99.4768150  37.2128420  75.2876900  98.6602490
  44.7288040  74.1580520  98.7476390  44.0243610  74.4465410  99.3279500
  45.0900200  74.9680630  98.3875950  34.6466610  72.4150220 101.1097000
  34.9883420  73.2592270 100.8150870  33.7082420  72.5633960 101.2262340
  47.7974960  73.6035310  99.1385600  46.8499870  73.6374290  99.2701030
  48.1224950  74.4174260  99.5234960  38.3294500  69.9032490  97.4341590
  38.6369480  69.3479380  96.7177090  37.3995200  70.0376950  97.2514580
  40.7175260  77.9681320  94.1701710  39.7904540  77.9018700  94.3990180
  40.8700080  78.9061450  94.0556950  40.7044340  74.2398320  91.1668870
  39.7648010  74.4012280  91.2521330  41.0227600  74.9584000  90.6204860
  47.2257100  78.9216840 101.1447900  46.3975730  78.9909930 100.6698030
  47.8207580  79.5071150 100.6763730  44.7472550  79.5301620  94.6736960
  44.1284970  79.1921170  94.0263260  44.7297000  78.8861380  95.3816150
  36.3231900  78.4946060  96.9521440  35.9188900  77.7823310  96.4567340
  36.4095020  78.1499300  97.8409480  35.0360520  75.2689270 100.7320480
  35.5875110  75.3784610  99.9573730  35.5504030  75.6426870 101.4475710
  42.9237250  78.7688430  91.6809710  43.3630530  77.9310860  91.5347530
  43.6365670  79.4017830  91.7673850  46.5054390  70.0231240  89.9950750
  46.1927050  70.1158070  90.8949820  47.2666860  70.6012270  89.9448180
  33.0236530  77.3891040  94.4528090  32.9034130  78.1153130  93.8409360
  32.7137420  76.6193950  93.9756000  35.4900190  70.7326110  97.8351760
  35.0468340  71.5135650  97.5036280  36.0485180  71.0556000  98.5422700
  38.6059010  70.3536810  92.7157590  37.9813190  70.3496680  93.4410900
  38.5189130  69.4867770  92.3193560  37.5276090  71.2773440  99.6941360
  37.8248420  72.1836270  99.6133380  38.0761650  70.7892220  99.0800930
  35.2814410  75.8559680  95.5633010  35.0555330  75.6396850  96.4679630
  34.5006940  76.2888140  95.2178980  42.5112170  75.8623050  94.1623660
  41.9121060  76.5858850  93.9787280  43.0591780  75.7999830  93.3800110
  41.1177040  74.4986590  96.1926940  41.5106610  74.8158790  95.3795630
  41.4793890  73.6198470  96.3071460  30.1541210  71.0887390  98.4157140
  29.8654260  71.6590250  99.1282120  30.8986970  70.6091840  98.7788370
  30.3411440  75.0307510  89.6259860  30.2586110  75.9738270  89.7674850
  29.9894500  74.8882420  88.7472210  41.7032180  77.0892340 100.2877720
  40.9713300  77.5979150 100.6367820  41.3056520  76.2722320  99.9866500
  38.1409570  73.7646540  98.6930210  38.1445630  73.3236490  97.8434750
  39.0360690  74.0863870  98.8002030  33.9911950  73.6473030  97.6524420
  33.6512000  74.1248260  98.4091470  33.2289270  73.1938150  97.2925520
  38.2029720  74.7658620  91.6836970  38.3242540  74.7245100  92.6322790
  37.8178230  75.6282770  91.5283700  42.1658090  72.5426020  99.7000660
  42.1830830  72.9934670 100.5442510  41.9173670  71.6431660  99.9134100
  37.2151220  77.0759760  91.0820270  36.6468120  76.6278010  90.4556180
  37.9240220  77.4352540  90.5485420  38.4417540  77.8248320 100.4395620
  38.8087670  77.3506890 101.1856960  38.2522600  78.6989890 100.7803960
  31.3058030  72.5692010  96.5689090  31.0204950  72.2047680  97.4067710
  31.2436890  71.8372470  95.9552230  40.9796620  71.4621270  93.2902460
  40.1661230  70.9634440  93.2147770  40.7858570  72.3019520  92.8738810
  43.6945010  75.8340920  91.5864620  44.5824630  76.1458150  91.4115960
  43.6650100  74.9613170  91.1945200  45.9659280  77.1452760  91.0544480
  45.8823000  77.5766980  90.2040920  46.6853470  77.6051110  91.4871300
  30.7988690  77.7050960  90.5285790  31.6683540  77.9875760  90.8121710
  30.3079010  78.5186830  90.4134600  37.9623500  79.0924170  94.6494070
  38.4186280  79.9029420  94.8754260  37.6111710  78.7747310  95.4812560
  33.8635280  69.4361820  95.1216590  33.7349910  69.4279720  96.0701510
  33.0397300  69.7744910  94.7707600  32.7835200  79.5224430  92.6567850
  32.1763150  80.2623330  92.6663150  33.2584550  79.6123790  91.8306050
  45.7230020  72.6432190  93.1412300  45.0943180  72.7477860  92.4270530
  45.2281940  72.8628970  93.9306180  37.6914050  74.9218140  94.5570180
  36.9830200  75.3904480  94.9983790  37.9758530  74.2640150  95.1915370
  41.7229480  71.6468800  95.9965970  41.5997260  71.6654930  95.0475480
  42.6714040  71.6947740  96.1164370  35.8949070  73.2303220  91.9320890
  36.7439600  73.6673370  91.8661080  35.5280340  73.5423480  92.7592950
  44.8158850  77.8015980  96.8452460  43.8748990  77.8166210  97.0200150
  45.1302920  77.0151940  97.2912760  34.7940490  79.4835580  90.4056420
  35.5603760  79.3716940  90.9681850  34.8715180  78.7873550  89.7533190
  33.4887250  76.9160650  91.0889310  33.5690840  75.9688160  91.2006710
  34.3807000  77.2467530  91.1949970  36.8259520  79.4800710  92.3799060
  37.2475940  79.3140580  93.2230450  36.9510360  78.6700940  91.8854200
  39.3387160  78.5038320  89.6276160  39.8592820  77.7887340  89.2617310
  39.9855560  79.1424190  89.9276670  35.7218420  75.5533940  89.3257220
  35.5207480  74.6901300  89.6870560  35.5510470  75.4667300  88.3878820
  43.2006730  70.3642170  91.8544100  43.4809020  69.5210070  92.2103520
  42.4272460  70.5965280  92.3682850  34.5201220  72.6534560  89.3135100
  34.8227120  72.6601990  88.4054250  35.2595810  72.3032420  89.8102760
  37.7386150  71.5969180  90.2991300  37.3908150  70.9193170  89.7193750
  37.9398920  71.1358690  91.1134690  47.5787450  79.6018900  92.4648010
  48.3406360  80.1715550  92.5707700  47.5941820  79.0346100  93.2356320
  31.0791790  78.1256830  96.6955670  30.4240630  77.8568470  96.0515370
  31.9169740  78.0161310  96.2457650  44.0282230  72.9198120  90.9174160
  44.4467110  72.7329100  90.0770820  43.7218290  72.0677170  91.2277090
  47.5271960  77.8322260  94.6149960  47.1515560  77.0650190  94.1831250
  46.7975080  78.2144960  95.1024890  30.2929870  75.3355760  92.6381000
  29.3893950  75.5985960  92.4632660  30.7770490  75.6066930  91.8580960
  46.8022920  76.0579750  97.9157200  47.3260400  75.5642400  97.2847370
  47.3882340  76.1930110  98.6604770  46.9812640  76.1419620 101.4376750
  46.0315350  76.1083160 101.5521740  47.1625650  77.0519730 101.2026520
  32.8357080  74.3921300  90.5475380  33.5448780  73.9704520  90.0622660
  32.1197020  74.4596530  89.9158730  32.4831240  70.4460630  89.5878030
  33.2059370  70.9869570  89.9059250  32.7555760  70.1724050  88.7119570
  46.2922890  75.3153100  93.8549610  46.7882010  75.0823970  94.6398490
  46.0938960  74.4764940  93.4387250  32.1723430  69.6966820  99.4900650
  32.8199620  69.1464200  99.0495810  32.5925270  69.9509970 100.3116460
  47.7210050  73.9514050  96.3887290  47.6109330  73.7970090  97.3269560
  48.4817640  73.4234990  96.1462700  48.6100320  71.7821970  89.6293430
  49.5349630  71.6503150  89.4211720  48.5876110  71.8614790  90.5829880
  48.6838810  72.5532630  92.2550140  47.8890310  72.4877750  92.7843050
  48.8882090  73.4883270  92.2435490  40.5637670  70.1806410 100.6599880
  39.7809460  70.6551910 100.9396640  40.2700600  69.2761240 100.5513060
  45.1158740  70.8829510  98.7048970  45.5566830  70.8274610  97.8570570
  44.8466330  71.7987520  98.7759150  46.9797310  70.5144750  96.7157790
  46.9185710  69.5705970  96.5688810  47.7589340  70.6224840  97.2611250
  31.9078080  70.4853890  93.1813600  32.6657440  70.5982770  92.6077630
  31.4455250  71.3223090  93.1357030  38.4491890  72.5993160  96.1715910
  37.6366400  72.2250050  95.8311790  38.9533530  71.8438240  96.4737100
  42.9516870  69.2635610  97.4098980  43.5546240  69.8355820  97.8847500
  42.2109860  69.8275050  97.1872880  46.0951470  69.6657170  92.6839260
  46.2902100  70.5640620  92.9506690  45.3081340  69.4344250  93.1772210
  34.2803230  71.0117940  91.7215570  34.8095990  70.2247740  91.5923520
  34.9131550  71.6909130  91.9551100  36.4741070  70.7493080  94.7760960
  35.8443810  70.0480390  94.9431090  35.9346210  71.5097210  94.5594120
  42.1070240  77.4623110  78.1528660  42.0264290  76.5477720  77.8820370
  41.6934660  77.9590180  77.4468370  40.2388280  79.2402130  80.0337930
  39.4630380  78.7602570  80.3236500  40.8901210  78.5607780  79.8594090
  34.2554110  79.5521940  80.9113690  33.4238990  79.2970650  81.3110200
  34.8635090  79.6232710  81.6471610  32.6646060  74.5123830  74.6956080
  31.7762760  74.8539800  74.5935960  32.9487250  74.3124150  73.8036910
  30.6279070  77.1129480  80.5795780  31.1995180  76.3451680  80.5799420
  30.6280610  77.4118240  79.6702390  31.8703940  72.5213840  82.3664710
  31.6906780  71.6239590  82.6467470  31.4684020  73.0685710  83.0411660
  40.7102440  74.7229700  80.2677020  41.0867260  73.8501580  80.1550690
  40.6121950  75.0588400  79.3767460  34.8407450  73.0955330  75.7294460
  34.9474200  73.9959060  76.0363220  33.9299810  73.0473300  75.4389110
  44.4926560  72.2180140  77.2005360  45.3136180  71.7276710  77.2430840
  44.5260640  72.8077800  77.9537200  32.4890610  75.0174340  80.9747050
  33.1700720  75.2812710  81.5934450  32.1738660  74.1775210  81.3085060
  36.6815180  76.0641700  80.0619640  37.1893400  76.5622670  80.7024660
  37.2128420  75.2876900  79.8859000  48.7826110  74.2346890  83.7648990
  48.0778280  74.6228600  83.2464100  49.0484030  74.9297180  84.3669920
  34.9651280  70.7040260  84.3283060  34.9669720  71.2212650  83.5228960
  34.1355590  70.2270440  84.3052990  44.7288040  74.1580520  79.9732900
  44.0243610  74.4465410  80.5536010  45.0900200  74.9680630  79.6132460
  34.6466610  72.4150220  82.3353510  34.9883420  73.2592270  82.0407380
  33.7082420  72.5633960  82.4518850  47.7974960  73.6035310  80.3642110
  46.8499870  73.6374290  80.4957540  48.1224950  74.4174260  80.7491470
  38.3294500  69.9032490  78.6598100  38.6369480  69.3479380  77.9433600
  37.3995200  70.0376950  78.4771090  40.7175260  77.9681320  75.3958220
  39.7904540  77.9018700  75.6246690  40.8700080  78.9061450  75.2813460
  40.7044340  74.2398320  72.3925380  39.7648010  74.4012280  72.4777840
  41.0227600  74.9584000  71.8461370  47.2257100  78.9216840  82.3704410
  46.3975730  78.9909930  81.8954540  47.8207580  79.5071150  81.9020240
  44.7472550  79.5301620  75.8993470  44.1284970  79.1921170  75.2519770
  44.7297000  78.8861380  76.6072660  44.1899110  75.7086160  83.3159280
  43.7770290  76.5339870  83.5699270  43.4575060  75.1231200  83.1235640
  36.3231900  78.4946060  78.1777950  35.9188900  77.7823310  77.6823850
  36.4095020  78.1499300  79.0665990  35.0360520  75.2689270  81.9576990
  35.5875110  75.3784610  81.1830240  35.5504030  75.6426870  82.6732220
  42.9237250  78.7688430  72.9066220  43.3630530  77.9310860  72.7604040
  43.6365670  79.4017830  72.9930360  34.7103250  78.7908630  85.5682330
  34.5711020  79.6631430  85.9369730  33.8284610  78.4481440  85.4230270
  46.5054390  70.0231240  71.2207260  46.1927050  70.1158070  72.1206330
  47.2666860  70.6012270  71.1704690  33.0236530  77.3891040  75.6784600
  32.9034130  78.1153130  75.0665870  32.7137420  76.6193950  75.2012510
  47.7155680  74.7602740  87.1981400  47.0999950  75.2682410  86.6696860
  47.3952100  73.8601070  87.1407340  35.4900190  70.7326110  79.0608270
  35.0468340  71.5135650  78.7292790  36.0485180  71.0556000  79.7679210
  39.7770000  73.5994630  84.6643590  39.3149370  73.8077650  85.4763530
  39.3748110  72.7853980  84.3614260  44.7774510  74.8203580  85.7940250
  43.9268100  74.5209330  86.1149320  44.6176300  75.0645590  84.8824070
  41.8724220  76.3205330  87.8939040  42.1977630  75.4869080  87.5541270
  42.6604550  76.8433850  88.0417370  38.6059010  70.3536810  73.9414100
  37.9813190  70.3496680  74.6667410  38.5189130  69.4867770  73.5450070
  37.5276090  71.2773440  80.9197870  37.8248420  72.1836270  80.8389890
  38.0761650  70.7892220  80.3057440  35.2814410  75.8559680  76.7889520
  35.0555330  75.6396850  77.6936140  34.5006940  76.2888140  76.4435490
  42.5112170  75.8623050  75.3880170  41.9121060  76.5858850  75.2043790
  43.0591780  75.7999830  74.6056620  37.7213620  76.7545260  87.4549790
  37.6257220  75.8139990  87.3050190  38.5645600  76.9760330  87.0597860
  41.1177040  74.4986590  77.4183450  41.5106610  74.8158790  76.6052140
  41.4793890  73.6198470  77.5327970  32.8524160  73.1658930  85.6083570
  32.4587550  74.0134140  85.8156350  32.1642560  72.5285300  85.7992210
  39.4269210  73.2493900  88.6780310  38.7367530  73.0566100  89.3126400
  40.1701510  73.5328540  89.2104610  30.1541210  71.0887390  79.6413650
  29.8654260  71.6590250  80.3538630  30.8986970  70.6091840  80.0044880
  30.3411440  75.0307510  70.8516370  30.2586110  75.9738270  70.9931360
  29.9894500  74.8882420  69.9728720  41.7032180  77.0892340  81.5134230
  40.9713300  77.5979150  81.8624330  41.3056520  76.2722320  81.2123010
  38.1409570  73.7646540  79.9186720  38.1445630  73.3236490  79.0691260
  39.0360690  74.0863870  80.0258540  33.9911950  73.6473030  78.8780930
  33.6512000  74.1248260  79.6347980  33.2289270  73.1938150  78.5182030
  38.2029720  74.7658620  72.9093480  38.3242540  74.7245100  73.8579300
  37.8178230  75.6282770  72.7540210  42.1658090  72.5426020  80.9257170
  42.1830830  72.9934670  81.7699020  41.9173670  71.6431660  81.1390610
  37.2151220  77.0759760  72.3076780  36.6468120  76.6278010  71.6812690
  37.9240220  77.4352540  71.7741930  45.5928840  69.9558200  86.7643550
  45.9174610  69.2247860  87.2901530  45.6285350  69.6371840  85.8624540
  38.4417540  77.8248320  81.6652130  38.8087670  77.3506890  82.4113470
  38.2522600  78.6989890  82.0060470  31.3058030  72.5692010  77.7945600
  31.0204950  72.2047680  78.6324220  31.2436890  71.8372470  77.1808740
  36.2316910  76.8656960  83.9836340  35.9273980  77.7448940  84.2086700
  37.1863370  76.9256750  84.0193780  40.9796620  71.4621270  74.5158970
  40.1661230  70.9634440  74.4404280  40.7858570  72.3019520  74.0995320
  40.9005480  80.1392370  86.2598580  40.8342790  79.2188040  86.0056170
  40.2710620  80.2367810  86.9743220  43.6945010  75.8340920  72.8121130
  44.5824630  76.1458150  72.6372470  43.6650100  74.9613170  72.4201710
  32.2880640  77.7059700  85.1307700  31.9295580  78.3713550  85.7181040
  31.9935200  76.8743250  85.5020320  35.4893760  78.1643940  88.0147250
  35.1893900  78.3101120  87.1175070  36.2605000  77.6049230  87.9220640
  45.9659280  77.1452760  72.2800990  45.8823000  77.5766980  71.4297430
  46.6853470  77.6051110  72.7127810  47.0433420  79.6020280  85.3570960
  46.3181610  80.1949060  85.1600350  47.5708880  79.5943820  84.5584330
  30.7988690  77.7050960  71.7542300  31.6683540  77.9875760  72.0378220
  30.3079010  78.5186830  71.6391110  37.9623500  79.0924170  75.8750580
  38.4186280  79.9029420  76.1010770  37.6111710  78.7747310  76.7069070
  33.8635280  69.4361820  76.3473100  33.7349910  69.4279720  77.2958020
  33.0397300  69.7744910  75.9964110  30.8629210  71.1952940  85.8079800
  30.1487730  71.3949860  86.4132410  31.2824250  70.4192510  86.1794600
  32.7835200  79.5224430  73.8824360  32.1763150  80.2623330  73.8919660
  33.2584550  79.6123790  73.0562560  42.3567990  73.6875250  83.5581250
  42.7248810  72.8670460  83.8860820  41.4966190  73.7477140  83.9736900
  45.7230020  72.6432190  74.3668810  45.0943180  72.7477860  73.6527040
  45.2281940  72.8628970  75.1562690  37.6914050  74.9218140  75.7826690
  36.9830200  75.3904480  76.2240300  37.9758530  74.2640150  76.4171880
  39.3169980  76.3414840  83.7819220  39.8155230  76.8160660  84.4471070
  39.4592930  75.4178360  83.9889250  41.7229480  71.6468800  77.2222480
  41.5997260  71.6654930  76.2731990  42.6714040  71.6947740  77.3420880
  35.8949070  73.2303220  73.1577400  36.7439600  73.6673370  73.0917590
  35.5280340  73.5423480  73.9849460  46.5236840  72.5582800  84.6247610
  46.0210440  73.2988200  84.9641420  47.3393500  72.9466800  84.3084400
  44.8158850  77.8015980  78.0708970  43.8748990  77.8166210  78.2456660
  45.1302920  77.0151940  78.5169270  34.7940490  79.4835580  71.6312930
  35.5603760  79.3716940  72.1938360  34.8715180  78.7873550  70.9789700
  33.4887250  76.9160650  72.3145820  33.5690840  75.9688160  72.4263220
  34.3807000  77.2467530  72.4206480  31.0158050  78.7375570  87.5501990
  31.5197070  78.1582850  88.1218220  30.2765470  79.0215800  88.0878360
  33.0481130  76.8805160  88.4452060  33.0886470  76.5819030  89.3537290
  33.9026630  77.2812770  88.2859580  36.8259520  79.4800710  73.6055570
  37.2475940  79.3140580  74.4486960  36.9510360  78.6700940  73.1110710
  34.9886940  75.4597260  86.4126550  34.4583400  74.9688210  85.7849890
  35.6575010  75.8881460  85.8784480  39.3387160  78.5038320  70.8532670
  39.8592820  77.7887340  70.4873820  39.9855560  79.1424190  71.1533180
  43.8865000  79.9266720  86.1767740  44.3006020  80.0811800  87.0258160
  42.9516000  80.0521940  86.3393520  44.3587170  77.2662880  88.1806890
  44.9407940  76.5115200  88.0927370  44.5348940  77.7970320  87.4038370
  35.4759240  72.4259630  86.4923840  35.3816110  71.8080380  85.7674710
  34.8956630  73.1525920  86.2653750  38.2420680  70.9832870  83.5251230
  37.7937980  71.0057130  82.6796780  37.6085880  70.5851890  84.1221530
  40.9844130  77.6103380  85.5301510  41.1040340  77.0144520  86.2696350
  41.8438130  77.6473070  85.1102810  43.3232030  78.1640570  84.1064020
  42.7967250  78.6883190  83.5029160  43.6663370  78.7967960  84.7373750
  35.7218420  75.5533940  70.5513730  35.5207480  74.6901300  70.9127070
  35.5510470  75.4667300  69.6135330  37.7512900  74.1524730  86.7877330
  38.3412590  73.8440580  87.4755150  36.9333140  73.6804480  86.9437230
  42.5706330  73.7690540  87.0210350  41.8821850  73.1072080  86.9560340
  43.2912350  73.3228810  87.4658810  43.2006730  70.3642170  73.0800610
  43.4809020  69.5210070  73.4360030  42.4272460  70.5965280  73.5939360
  34.5201220  72.6534560  70.5391610  34.8227120  72.6601990  69.6310760
  35.2595810  72.3032420  71.0359270  37.7386150  71.5969180  71.5247810
  37.3908150  70.9193170  70.9450260  37.9398920  71.1358690  72.3391200
  47.5787450  79.6018900  73.6904520  48.3406360  80.1715550  73.7964210
  47.5941820  79.0346100  74.4612830  31.0791790  78.1256830  77.9212180
  30.4240630  77.8568470  77.2771880  31.9169740  78.0161310  77.4714160
  44.0282230  72.9198120  72.1430670  44.4467110  72.7329100  71.3027330
  43.7218290  72.0677170  72.4533600  47.5271960  77.8322260  75.8406470
  47.1515560  77.0650190  75.4087760  46.7975080  78.2144960  76.3281400
  32.1167720  78.5109400  82.4615520  32.4840760  78.4236800  83.3411540
  31.5478540  77.7475950  82.3622380  46.9171580  76.9793780  85.4745990
  46.6857670  76.7506530  84.5743940  47.1776130  77.8993330  85.4290880
  31.6683720  75.4218490  86.3673940  30.7739770  75.3885250  86.7067650
  32.2081270  75.6205280  87.1325190  45.3559650  72.2050210  88.2525690
  46.2329830  72.2133610  88.6359690  45.3680490  71.4681050  87.6418040
  30.2929870  75.3355760  73.8637510  29.3893950  75.5985960  73.6889170
  30.7770490  75.6066930  73.0837470  46.8022920  76.0579750  79.1413710
  47.3260400  75.5642400  78.5103880  47.3882340  76.1930110  79.8861280
  46.9812640  76.1419620  82.6633260  46.0315350  76.1083160  82.7778250
  47.1625650  77.0519730  82.4283030  32.8357080  74.3921300  71.7731890
  33.5448780  73.9704520  71.2879170  32.1197020  74.4596530  71.1415240
  32.4831240  70.4460630  70.8134540  33.2059370  70.9869570  71.1315760
  32.7555760  70.1724050  69.9376080  46.2922890  75.3153100  75.0806120
  46.7882010  75.0823970  75.8655000  46.0938960  74.4764940  74.6643760
  32.1723430  69.6966820  80.7157160  32.8199620  69.1464200  80.2752320
  32.5925270  69.9509970  81.5372970  47.7210050  73.9514050  77.6143800
  47.6109330  73.7970090  78.5526070  48.4817640  73.4234990  77.3719210
  46.0675770  69.8908180  84.0726800  46.7047990  70.5042320  84.4385990
  46.2150660  69.9268840  83.1276030  48.6100320  71.7821970  70.8549940
  49.5349630  71.6503150  70.6468230  48.5876110  71.8614790  71.8086390
  48.6838810  72.5532630  73.4806650  47.8890310  72.4877750  74.0099560
  48.8882090  73.4883270  73.4692000  31.9255430  69.8522490  83.4582480
  31.5770250  70.3086310  84.2240660  31.5943130  68.9579620  83.5404910
  39.4380250  71.0434370  86.9801900  39.3769140  71.6356200  87.7297310
  40.3780630  70.9360330  86.8352160  42.0754810  70.7004430  86.6194190
  42.6895220  71.0183720  85.9575270  42.6204370  70.2153020  87.2390050
  32.5976070  69.3798690  86.7333250  33.1459060  69.1986740  85.9699360
  32.6631380  68.5892800  87.2689560  42.8162850  69.2636570  82.9463480
  41.9422690  69.5971680  82.7436410  42.7073600  68.7909750  83.7715350
  43.7234830  71.4707440  84.3305200  43.3948190  70.6559200  83.9506930
  44.6717130  71.4277250  84.2070890  40.5637670  70.1806410  81.8856390
  39.7809460  70.6551910  82.1653150  40.2700600  69.2761240  81.7769570
  45.1158740  70.8829510  79.9305480  45.5566830  70.8274610  79.0827080
  44.8466330  71.7987520  80.0015660  46.9797310  70.5144750  77.9414300
  46.9185710  69.5705970  77.7945320  47.7589340  70.6224840  78.4867760
  31.9078080  70.4853890  74.4070110  32.6657440  70.5982770  73.8334140
  31.4455250  71.3223090  74.3613540  38.4491890  72.5993160  77.3972420
  37.6366400  72.2250050  77.0568300  38.9533530  71.8438240  77.6993610
  42.9516870  69.2635610  78.6355490  43.5546240  69.8355820  79.1104010
  42.2109860  69.8275050  78.4129390  46.0951470  69.6657170  73.9095770
  46.2902100  70.5640620  74.1763200  45.3081340  69.4344250  74.4028720
  34.2803230  71.0117940  72.9472080  34.8095990  70.2247740  72.8180030
  34.9131550  71.6909130  73.1807610  36.4741070  70.7493080  76.0017470
  35.8443810  70.0480390  76.1687600  35.9346210  71.5097210  75.7850630
  36.5996630  70.0277060  88.4369960  36.3180900  70.5310660  87.6730780
  36.9816330  69.2298810  88.0712090  43.2012090  69.4430640  89.0150430
  43.0877540  69.7625250  89.9101950  44.0181830  69.8443150  88.7187710
  42.1070240  77.4623110  59.3785170  42.0264290  76.5477720  59.1076880
  41.6934660  77.9590180  58.6724880  40.2388280  79.2402130  61.2594440
  39.4630380  78.7602570  61.5493010  40.8901210  78.5607780  61.0850600
  34.2554110  79.5521940  62.1370200  33.4238990  79.2970650  62.5366710
  34.8635090  79.6232710  62.8728120  32.6646060  74.5123830  55.9212590
  31.7762760  74.8539800  55.8192470  32.9487250  74.3124150  55.0293420
  30.6279070  77.1129480  61.8052290  31.1995180  76.3451680  61.8055930
  30.6280610  77.4118240  60.8958900  31.8703940  72.5213840  63.5921220
  31.6906780  71.6239590  63.8723980  31.4684020  73.0685710  64.2668170
  40.7102440  74.7229700  61.4933530  41.0867260  73.8501580  61.3807200
  40.6121950  75.0588400  60.6023970  34.8407450  73.0955330  56.9550970
  34.9474200  73.9959060  57.2619730  33.9299810  73.0473300  56.6645620
  44.4926560  72.2180140  58.4261870  45.3136180  71.7276710  58.4687350
  44.5260640  72.8077800  59.1793710  32.4890610  75.0174340  62.2003560
  33.1700720  75.2812710  62.8190960  32.1738660  74.1775210  62.5341570
  36.6815180  76.0641700  61.2876150  37.1893400  76.5622670  61.9281170
  37.2128420  75.2876900  61.1115510  48.7826110  74.2346890  64.9905500
  48.0778280  74.6228600  64.4720610  49.0484030  74.9297180  65.5926430
  34.9651280  70.7040260  65.5539570  34.9669720  71.2212650  64.7485470
  34.1355590  70.2270440  65.5309500  44.7288040  74.1580520  61.1989410
  44.0243610  74.4465410  61.7792520  45.0900200  74.9680630  60.8388970
  34.6466610  72.4150220  63.5610020  34.9883420  73.2592270  63.2663890
  33.7082420  72.5633960  63.6775360  47.7974960  73.6035310  61.5898620
  46.8499870  73.6374290  61.7214050  48.1224950  74.4174260  61.9747980
  38.3294500  69.9032490  59.8854610  38.6369480  69.3479380  59.1690110
  37.3995200  70.0376950  59.7027600  40.7175260  77.9681320  56.6214730
  39.7904540  77.9018700  56.8503200  40.8700080  78.9061450  56.5069970
  40.7044340  74.2398320  53.6181890  39.7648010  74.4012280  53.7034350
  41.0227600  74.9584000  53.0717880  47.2257100  78.9216840  63.5960920
  46.3975730  78.9909930  63.1211050  47.8207580  79.5071150  63.1276750
  44.7472550  79.5301620  57.1249980  44.1284970  79.1921170  56.4776280
  44.7297000  78.8861380  57.8329170  44.1899110  75.7086160  64.5415790
  43.7770290  76.5339870  64.7955780  43.4575060  75.1231200  64.3492150
  36.3231900  78.4946060  59.4034460  35.9188900  77.7823310  58.9080360
  36.4095020  78.1499300  60.2922500  35.0360520  75.2689270  63.1833500
  35.5875110  75.3784610  62.4086750  35.5504030  75.6426870  63.8988730
  42.9237250  78.7688430  54.1322730  43.3630530  77.9310860  53.9860550
  43.6365670  79.4017830  54.2186870  34.7103250  78.7908630  66.7938840
  34.5711020  79.6631430  67.1626240  33.8284610  78.4481440  66.6486780
  46.5054390  70.0231240  52.4463770  46.1927050  70.1158070  53.3462840
  47.2666860  70.6012270  52.3961200  33.0236530  77.3891040  56.9041110
  32.9034130  78.1153130  56.2922380  32.7137420  76.6193950  56.4269020
  47.7155680  74.7602740  68.4237910  47.0999950  75.2682410  67.8953370
  47.3952100  73.8601070  68.3663850  35.4900190  70.7326110  60.2864780
  35.0468340  71.5135650  59.9549300  36.0485180  71.0556000  60.9935720
  39.7770000  73.5994630  65.8900100  39.3149370  73.8077650  66.7020040
  39.3748110  72.7853980  65.5870770  44.7774510  74.8203580  67.0196760
  43.9268100  74.5209330  67.3405830  44.6176300  75.0645590  66.1080580
  41.8724220  76.3205330  69.1195550  42.1977630  75.4869080  68.7797780
  42.6604550  76.8433850  69.2673880  38.6059010  70.3536810  55.1670610
  37.9813190  70.3496680  55.8923920  38.5189130  69.4867770  54.7706580
  37.5276090  71.2773440  62.1454380  37.8248420  72.1836270  62.0646400
  38.0761650  70.7892220  61.5313950  35.2814410  75.8559680  58.0146030
  35.0555330  75.6396850  58.9192650  34.5006940  76.2888140  57.6692000
  42.5112170  75.8623050  56.6136680  41.9121060  76.5858850  56.4300300
  43.0591780  75.7999830  55.8313130  37.7213620  76.7545260  68.6806300
  37.6257220  75.8139990  68.5306700  38.5645600  76.9760330  68.2854370
  41.1177040  74.4986590  58.6439960  41.5106610  74.8158790  57.8308650
  41.4793890  73.6198470  58.7584480  32.8524160  73.1658930  66.8340080
  32.4587550  74.0134140  67.0412860  32.1642560  72.5285300  67.0248720
  39.4269210  73.2493900  69.9036820  38.7367530  73.0566100  70.5382910
  40.1701510  73.5328540  70.4361120  30.1541210  71.0887390  60.8670160
  29.8654260  71.6590250  61.5795140  30.8986970  70.6091840  61.2301390
  30.3411440  75.0307510  52.0772880  30.2586110  75.9738270  52.2187870
  29.9894500  74.8882420  51.1985230  41.7032180  77.0892340  62.7390740
  40.9713300  77.5979150  63.0880840  41.3056520  76.2722320  62.4379520
  38.1409570  73.7646540  61.1443230  38.1445630  73.3236490  60.2947770
  39.0360690  74.0863870  61.2515050  33.9911950  73.6473030  60.1037440
  33.6512000  74.1248260  60.8604490  33.2289270  73.1938150  59.7438540
  38.2029720  74.7658620  54.1349990  38.3242540  74.7245100  55.0835810
  37.8178230  75.6282770  53.9796720  42.1658090  72.5426020  62.1513680
  42.1830830  72.9934670  62.9955530  41.9173670  71.6431660  62.3647120
  37.2151220  77.0759760  53.5333290  36.6468120  76.6278010  52.9069200
  37.9240220  77.4352540  52.9998440  45.5928840  69.9558200  67.9900060
  45.9174610  69.2247860  68.5158040  45.6285350  69.6371840  67.0881050
  38.4417540  77.8248320  62.8908640  38.8087670  77.3506890  63.6369980
  38.2522600  78.6989890  63.2316980  31.3058030  72.5692010  59.0202110
  31.0204950  72.2047680  59.8580730  31.2436890  71.8372470  58.4065250
  36.2316910  76.8656960  65.2092850  35.9273980  77.7448940  65.4343210
  37.1863370  76.9256750  65.2450290  40.9796620  71.4621270  55.7415480
  40.1661230  70.9634440  55.6660790  40.7858570  72.3019520  55.3251830
  40.9005480  80.1392370  67.4855090  40.8342790  79.2188040  67.2312680
  40.2710620  80.2367810  68.1999730  43.6945010  75.8340920  54.0377640
  44.5824630  76.1458150  53.8628980  43.6650100  74.9613170  53.6458220
  32.2880640  77.7059700  66.3564210  31.9295580  78.3713550  66.9437550
  31.9935200  76.8743250  66.7276830  35.4893760  78.1643940  69.2403760
  35.1893900  78.3101120  68.3431580  36.2605000  77.6049230  69.1477150
  45.9659280  77.1452760  53.5057500  45.8823000  77.5766980  52.6553940
  46.6853470  77.6051110  53.9384320  47.0433420  79.6020280  66.5827470
  46.3181610  80.1949060  66.3856860  47.5708880  79.5943820  65.7840840
  30.7988690  77.7050960  52.9798810  31.6683540  77.9875760  53.2634730
  30.3079010  78.5186830  52.8647620  37.9623500  79.0924170  57.1007090
  38.4186280  79.9029420  57.3267280  37.6111710  78.7747310  57.9325580
  33.8635280  69.4361820  57.5729610  33.7349910  69.4279720  58.5214530
  33.0397300  69.7744910  57.2220620  30.8629210  71.1952940  67.0336310
  30.1487730  71.3949860  67.6388920  31.2824250  70.4192510  67.4051110
  32.7835200  79.5224430  55.1080870  32.1763150  80.2623330  55.1176170
  33.2584550  79.6123790  54.2819070  42.3567990  73.6875250  64.7837760
  42.7248810  72.8670460  65.1117330  41.4966190  73.7477140  65.1993410
  45.7230020  72.6432190  55.5925320  45.0943180  72.7477860  54.8783550
  45.2281940  72.8628970  56.3819200  37.6914050  74.9218140  57.0083200
  36.9830200  75.3904480  57.4496810  37.9758530  74.2640150  57.6428390
  39.3169980  76.3414840  65.0075730  39.8155230  76.8160660  65.6727580
  39.4592930  75.4178360  65.2145760  41.7229480  71.6468800  58.4478990
  41.5997260  71.6654930  57.4988500  42.6714040  71.6947740  58.5677390
  35.8949070  73.2303220  54.3833910  36.7439600  73.6673370  54.3174100
  35.5280340  73.5423480  55.2105970  46.5236840  72.5582800  65.8504120
  46.0210440  73.2988200  66.1897930  47.3393500  72.9466800  65.5340910
  44.8158850  77.8015980  59.2965480  43.8748990  77.8166210  59.4713170
  45.1302920  77.0151940  59.7425780  34.7940490  79.4835580  52.8569440
  35.5603760  79.3716940  53.4194870  34.8715180  78.7873550  52.2046210
  33.4887250  76.9160650  53.5402330  33.5690840  75.9688160  53.6519730
  34.3807000  77.2467530  53.6462990  31.0158050  78.7375570  68.7758500
  31.5197070  78.1582850  69.3474730  30.2765470  79.0215800  69.3134870
  33.0481130  76.8805160  69.6708570  33.0886470  76.5819030  70.5793800
  33.9026630  77.2812770  69.5116090  36.8259520  79.4800710  54.8312080
  37.2475940  79.3140580  55.6743470  36.9510360  78.6700940  54.3367220
  34.9886940  75.4597260  67.6383060  34.4583400  74.9688210  67.0106400
  35.6575010  75.8881460  67.1040990  39.3387160  78.5038320  52.0789180
  39.8592820  77.7887340  51.7130330  39.9855560  79.1424190  52.3789690
  43.8865000  79.9266720  67.4024250  44.3006020  80.0811800  68.2514670
  42.9516000  80.0521940  67.5650030  44.3587170  77.2662880  69.4063400
  44.9407940  76.5115200  69.3183880  44.5348940  77.7970320  68.6294880
  35.4759240  72.4259630  67.7180350  35.3816110  71.8080380  66.9931220
  34.8956630  73.1525920  67.4910260  38.2420680  70.9832870  64.7507740
  37.7937980  71.0057130  63.9053290  37.6085880  70.5851890  65.3478040
  40.9844130  77.6103380  66.7558020  41.1040340  77.0144520  67.4952860
  41.8438130  77.6473070  66.3359320  43.3232030  78.1640570  65.3320530
  42.7967250  78.6883190  64.7285670  43.6663370  78.7967960  65.9630260
  35.7218420  75.5533940  51.7770240  35.5207480  74.6901300  52.1383580
  35.5510470  75.4667300  50.8391840  37.7512900  74.1524730  68.0133840
  38.3412590  73.8440580  68.7011660  36.9333140  73.6804480  68.1693740
  42.5706330  73.7690540  68.2466860  41.8821850  73.1072080  68.1816850
  43.2912350  73.3228810  68.6915320  43.2006730  70.3642170  54.3057120
  43.4809020  69.5210070  54.6616540  42.4272460  70.5965280  54.8195870
  34.5201220  72.6534560  51.7648120  34.8227120  72.6601990  50.8567270
  35.2595810  72.3032420  52.2615780  37.7386150  71.5969180  52.7504320
  37.3908150  70.9193170  52.1706770  37.9398920  71.1358690  53.5647710
  47.5787450  79.6018900  54.9161030  48.3406360  80.1715550  55.0220720
  47.5941820  79.0346100  55.6869340  31.0791790  78.1256830  59.1468690
  30.4240630  77.8568470  58.5028390  31.9169740  78.0161310  58.6970670
  44.0282230  72.9198120  53.3687180  44.4467110  72.7329100  52.5283840
  43.7218290  72.0677170  53.6790110  47.5271960  77.8322260  57.0662980
  47.1515560  77.0650190  56.6344270  46.7975080  78.2144960  57.5537910
  32.1167720  78.5109400  63.6872030  32.4840760  78.4236800  64.5668050
  31.5478540  77.7475950  63.5878890  46.9171580  76.9793780  66.7002500
  46.6857670  76.7506530  65.8000450  47.1776130  77.8993330  66.6547390
  31.6683720  75.4218490  67.5930450  30.7739770  75.3885250  67.9324160
  32.2081270  75.6205280  68.3581700  45.3559650  72.2050210  69.4782200
  46.2329830  72.2133610  69.8616200  45.3680490  71.4681050  68.8674550
  30.2929870  75.3355760  55.0894020  29.3893950  75.5985960  54.9145680
  30.7770490  75.6066930  54.3093980  46.8022920  76.0579750  60.3670220
  47.3260400  75.5642400  59.7360390  47.3882340  76.1930110  61.1117790
  46.9812640  76.1419620  63.8889770  46.0315350  76.1083160  64.0034760
  47.1625650  77.0519730  63.6539540  32.8357080  74.3921300  52.9988400
  33.5448780  73.9704520  52.5135680  32.1197020  74.4596530  52.3671750
  32.4831240  70.4460630  52.0391050  33.2059370  70.9869570  52.3572270
  32.7555760  70.1724050  51.1632590  46.2922890  75.3153100  56.3062630
  46.7882010  75.0823970  57.0911510  46.0938960  74.4764940  55.8900270
  32.1723430  69.6966820  61.9413670  32.8199620  69.1464200  61.5008830
  32.5925270  69.9509970  62.7629480  47.7210050  73.9514050  58.8400310
  47.6109330  73.7970090  59.7782580  48.4817640  73.4234990  58.5975720
  46.0675770  69.8908180  65.2983310  46.7047990  70.5042320  65.6642500
  46.2150660  69.9268840  64.3532540  48.6100320  71.7821970  52.0806450
  49.5349630  71.6503150  51.8724740  48.5876110  71.8614790  53.0342900
  48.6838810  72.5532630  54.7063160  47.8890310  72.4877750  55.2356070
  48.8882090  73.4883270  54.6948510  31.9255430  69.8522490  64.6838990
  31.5770250  70.3086310  65.4497170  31.5943130  68.9579620  64.7661420
  39.4380250  71.0434370  68.2058410  39.3769140  71.6356200  68.9553820
  40.3780630  70.9360330  68.0608670  42.0754810  70.7004430  67.8450700
  42.6895220  71.0183720  67.1831780  42.6204370  70.2153020  68.4646560
  32.5976070  69.3798690  67.9589760  33.1459060  69.1986740  67.1955870
  32.6631380  68.5892800  68.4946070  42.8162850  69.2636570  64.1719990
  41.9422690  69.5971680  63.9692920  42.7073600  68.7909750  64.9971860
  43.7234830  71.4707440  65.5561710  43.3948190  70.6559200  65.1763440
  44.6717130  71.4277250  65.4327400  40.5637670  70.1806410  63.1112900
  39.7809460  70.6551910  63.3909660  40.2700600  69.2761240  63.0026080
  45.1158740  70.8829510  61.1561990  45.5566830  70.8274610  60.3083590
  44.8466330  71.7987520  61.2272170  46.9797310  70.5144750  59.1670810
  46.9185710  69.5705970  59.0201830  47.7589340  70.6224840  59.7124270
  31.9078080  70.4853890  55.6326620  32.6657440  70.5982770  55.0590650
  31.4455250  71.3223090  55.5870050  38.4491890  72.5993160  58.6228930
  37.6366400  72.2250050  58.2824810  38.9533530  71.8438240  58.9250120
  42.9516870  69.2635610  59.8612000  43.5546240  69.8355820  60.3360520
  42.2109860  69.8275050  59.6385900  46.0951470  69.6657170  55.1352280
  46.2902100  70.5640620  55.4019710  45.3081340  69.4344250  55.6285230
  34.2803230  71.0117940  54.1728590  34.8095990  70.2247740  54.0436540
  34.9131550  71.6909130  54.4064120  36.4741070  70.7493080  57.2273980
  35.8443810  70.0480390  57.3944110  35.9346210  71.5097210  57.0107140
  36.5996630  70.0277060  69.6626470  36.3180900  70.5310660  68.8987290
  36.9816330  69.2298810  69.2968600  43.2012090  69.4430640  70.2406940
  43.0877540  69.7625250  71.1358460  44.0181830  69.8443150  69.9444220
  42.1070240  77.4623110  40.6041680  42.0264290  76.5477720  40.3333390
  41.6934660  77.9590180  39.8981390  40.2388280  79.2402130  42.4850950
  39.4630380  78.7602570  42.7749520  40.8901210  78.5607780  42.3107110
  34.2554110  79.5521940  43.3626710  33.4238990  79.2970650  43.7623220
  34.8635090  79.6232710  44.0984630  32.6646060  74.5123830  37.1469100
  31.7762760  74.8539800  37.0448980  32.9487250  74.3124150  36.2549930
  30.6279070  77.1129480  43.0308800  31.1995180  76.3451680  43.0312440
  30.6280610  77.4118240  42.1215410  31.8703940  72.5213840  44.8177730
  31.6906780  71.6239590  45.0980490  31.4684020  73.0685710  45.4924680
  40.7102440  74.7229700  42.7190040  41.0867260  73.8501580  42.6063710
  40.6121950  75.0588400  41.8280480  34.8407450  73.0955330  38.1807480
  34.9474200  73.9959060  38.4876240  33.9299810  73.0473300  37.8902130
  44.4926560  72.2180140  39.6518380  45.3136180  71.7276710  39.6943860
  44.5260640  72.8077800  40.4050220  32.4890610  75.0174340  43.4260070
  33.1700720  75.2812710  44.0447470  32.1738660  74.1775210  43.7598080
  36.6815180  76.0641700  42.5132660  37.1893400  76.5622670  43.1537680
  37.2128420  75.2876900  42.3372020  48.7826110  74.2346890  46.2162010
  48.0778280  74.6228600  45.6977120  49.0484030  74.9297180  46.8182940
  34.9651280  70.7040260  46.7796080  34.9669720  71.2212650  45.9741980
  34.1355590  70.2270440  46.7566010  44.7288040  74.1580520  42.4245920
  44.0243610  74.4465410  43.0049030  45.0900200  74.9680630  42.0645480
  34.6466610  72.4150220  44.7866530  34.9883420  73.2592270  44.4920400
  33.7082420  72.5633960  44.9031870  47.7974960  73.6035310  42.8155130
  46.8499870  73.6374290  42.9470560  48.1224950  74.4174260  43.2004490
  38.3294500  69.9032490  41.1111120  38.6369480  69.3479380  40.3946620
  37.3995200  70.0376950  40.9284110  40.7175260  77.9681320  37.8471240
  39.7904540  77.9018700  38.0759710  40.8700080  78.9061450  37.7326480
  40.7044340  74.2398320  34.8438400  39.7648010  74.4012280  34.9290860
  41.0227600  74.9584000  34.2974390  47.2257100  78.9216840  44.8217430
  46.3975730  78.9909930  44.3467560  47.8207580  79.5071150  44.3533260
  44.7472550  79.5301620  38.3506490  44.1284970  79.1921170  37.7032790
  44.7297000  78.8861380  39.0585680  44.1899110  75.7086160  45.7672300
  43.7770290  76.5339870  46.0212290  43.4575060  75.1231200  45.5748660
  36.3231900  78.4946060  40.6290970  35.9188900  77.7823310  40.1336870
  36.4095020  78.1499300  41.5179010  35.0360520  75.2689270  44.4090010
  35.5875110  75.3784610  43.6343260  35.5504030  75.6426870  45.1245240
  42.9237250  78.7688430  35.3579240  43.3630530  77.9310860  35.2117060
  43.6365670  79.4017830  35.4443380  34.7103250  78.7908630  48.0195350
  34.5711020  79.6631430  48.3882750  33.8284610  78.4481440  47.8743290
  46.5054390  70.0231240  33.6720280  46.1927050  70.1158070  34.5719350
  47.2666860  70.6012270  33.6217710  33.0236530  77.3891040  38.1297620
  32.9034130  78.1153130  37.5178890  32.7137420  76.6193950  37.6525530
  47.7155680  74.7602740  49.6494420  47.0999950  75.2682410  49.1209880
  47.3952100  73.8601070  49.5920360  35.4900190  70.7326110  41.5121290
  35.0468340  71.5135650  41.1805810  36.0485180  71.0556000  42.2192230
  39.7770000  73.5994630  47.1156610  39.3149370  73.8077650  47.9276550
  39.3748110  72.7853980  46.8127280  44.7774510  74.8203580  48.2453270
  43.9268100  74.5209330  48.5662340  44.6176300  75.0645590  47.3337090
  41.8724220  76.3205330  50.3452060  42.1977630  75.4869080  50.0054290
  42.6604550  76.8433850  50.4930390  38.6059010  70.3536810  36.3927120
  37.9813190  70.3496680  37.1180430  38.5189130  69.4867770  35.9963090
  37.5276090  71.2773440  43.3710890  37.8248420  72.1836270  43.2902910
  38.0761650  70.7892220  42.7570460  35.2814410  75.8559680  39.2402540
  35.0555330  75.6396850  40.1449160  34.5006940  76.2888140  38.8948510
  42.5112170  75.8623050  37.8393190  41.9121060  76.5858850  37.6556810
  43.0591780  75.7999830  37.0569640  37.7213620  76.7545260  49.9062810
  37.6257220  75.8139990  49.7563210  38.5645600  76.9760330  49.5110880
  41.1177040  74.4986590  39.8696470  41.5106610  74.8158790  39.0565160
  41.4793890  73.6198470  39.9840990  32.8524160  73.1658930  48.0596590
  32.4587550  74.0134140  48.2669370  32.1642560  72.5285300  48.2505230
  39.4269210  73.2493900  51.1293330  38.7367530  73.0566100  51.7639420
  40.1701510  73.5328540  51.6617630  30.1541210  71.0887390  42.0926670
  29.8654260  71.6590250  42.8051650  30.8986970  70.6091840  42.4557900
  30.3411440  75.0307510  33.3029390  30.2586110  75.9738270  33.4444380
  29.9894500  74.8882420  32.4241740  41.7032180  77.0892340  43.9647250
  40.9713300  77.5979150  44.3137350  41.3056520  76.2722320  43.6636030
  38.1409570  73.7646540  42.3699740  38.1445630  73.3236490  41.5204280
  39.0360690  74.0863870  42.4771560  33.9911950  73.6473030  41.3293950
  33.6512000  74.1248260  42.0861000  33.2289270  73.1938150  40.9695050
  38.2029720  74.7658620  35.3606500  38.3242540  74.7245100  36.3092320
  37.8178230  75.6282770  35.2053230  42.1658090  72.5426020  43.3770190
  42.1830830  72.9934670  44.2212040  41.9173670  71.6431660  43.5903630
  37.2151220  77.0759760  34.7589800  36.6468120  76.6278010  34.1325710
  37.9240220  77.4352540  34.2254950  45.5928840  69.9558200  49.2156570
  45.9174610  69.2247860  49.7414550  45.6285350  69.6371840  48.3137560
  38.4417540  77.8248320  44.1165150  38.8087670  77.3506890  44.8626490
  38.2522600  78.6989890  44.4573490  31.3058030  72.5692010  40.2458620
  31.0204950  72.2047680  41.0837240  31.2436890  71.8372470  39.6321760
  36.2316910  76.8656960  46.4349360  35.9273980  77.7448940  46.6599720
  37.1863370  76.9256750  46.4706800  40.9796620  71.4621270  36.9671990
  40.1661230  70.9634440  36.8917300  40.7858570  72.3019520  36.5508340
  40.9005480  80.1392370  48.7111600  40.8342790  79.2188040  48.4569190
  40.2710620  80.2367810  49.4256240  43.6945010  75.8340920  35.2634150
  44.5824630  76.1458150  35.0885490  43.6650100  74.9613170  34.8714730
  32.2880640  77.7059700  47.5820720  31.9295580  78.3713550  48.1694060
  31.9935200  76.8743250  47.9533340  35.4893760  78.1643940  50.4660270
  35.1893900  78.3101120  49.5688090  36.2605000  77.6049230  50.3733660
  45.9659280  77.1452760  34.7314010  45.8823000  77.5766980  33.8810450
  46.6853470  77.6051110  35.1640830  47.0433420  79.6020280  47.8083980
  46.3181610  80.1949060  47.6113370  47.5708880  79.5943820  47.0097350
  30.7988690  77.7050960  34.2055320  31.6683540  77.9875760  34.4891240
  30.3079010  78.5186830  34.0904130  37.9623500  79.0924170  38.3263600
  38.4186280  79.9029420  38.5523790  37.6111710  78.7747310  39.1582090
  33.8635280  69.4361820  38.7986120  33.7349910  69.4279720  39.7471040
  33.0397300  69.7744910  38.4477130  30.8629210  71.1952940  48.2592820
  30.1487730  71.3949860  48.8645430  31.2824250  70.4192510  48.6307620
  32.7835200  79.5224430  36.3337380  32.1763150  80.2623330  36.3432680
  33.2584550  79.6123790  35.5075580  42.3567990  73.6875250  46.0094270
  42.7248810  72.8670460  46.3373840  41.4966190  73.7477140  46.4249920
  45.7230020  72.6432190  36.8181830  45.0943180  72.7477860  36.1040060
  45.2281940  72.8628970  37.6075710  37.6914050  74.9218140  38.2339710
  36.9830200  75.3904480  38.6753320  37.9758530  74.2640150  38.8684900
  39.3169980  76.3414840  46.2332240  39.8155230  76.8160660  46.8984090
  39.4592930  75.4178360  46.4402270  41.7229480  71.6468800  39.6735500
  41.5997260  71.6654930  38.7245010  42.6714040  71.6947740  39.7933900
  35.8949070  73.2303220  35.6090420  36.7439600  73.6673370  35.5430610
  35.5280340  73.5423480  36.4362480  46.5236840  72.5582800  47.0760630
  46.0210440  73.2988200  47.4154440  47.3393500  72.9466800  46.7597420
  44.8158850  77.8015980  40.5221990  43.8748990  77.8166210  40.6969680
  45.1302920  77.0151940  40.9682290  34.7940490  79.4835580  34.0825950
  35.5603760  79.3716940  34.6451380  34.8715180  78.7873550  33.4302720
  33.4887250  76.9160650  34.7658840  33.5690840  75.9688160  34.8776240
  34.3807000  77.2467530  34.8719500  31.0158050  78.7375570  50.0015010
  31.5197070  78.1582850  50.5731240  30.2765470  79.0215800  50.5391380
  33.0481130  76.8805160  50.8965080  33.0886470  76.5819030  51.8050310
  33.9026630  77.2812770  50.7372600  36.8259520  79.4800710  36.0568590
  37.2475940  79.3140580  36.8999980  36.9510360  78.6700940  35.5623730
  34.9886940  75.4597260  48.8639570  34.4583400  74.9688210  48.2362910
  35.6575010  75.8881460  48.3297500  39.3387160  78.5038320  33.3045690
  39.8592820  77.7887340  32.9386840  39.9855560  79.1424190  33.6046200
  43.8865000  79.9266720  48.6280760  44.3006020  80.0811800  49.4771180
  42.9516000  80.0521940  48.7906540  44.3587170  77.2662880  50.6319910
  44.9407940  76.5115200  50.5440390  44.5348940  77.7970320  49.8551390
  35.4759240  72.4259630  48.9436860  35.3816110  71.8080380  48.2187730
  34.8956630  73.1525920  48.7166770  38.2420680  70.9832870  45.9764250
  37.7937980  71.0057130  45.1309800  37.6085880  70.5851890  46.5734550
  40.9844130  77.6103380  47.9814530  41.1040340  77.0144520  48.7209370
  41.8438130  77.6473070  47.5615830  43.3232030  78.1640570  46.5577040
  42.7967250  78.6883190  45.9542180  43.6663370  78.7967960  47.1886770
  35.7218420  75.5533940  33.0026750  35.5207480  74.6901300  33.3640090
  35.5510470  75.4667300  32.0648350  37.7512900  74.1524730  49.2390350
  38.3412590  73.8440580  49.9268170  36.9333140  73.6804480  49.3950250
  42.5706330  73.7690540  49.4723370  41.8821850  73.1072080  49.4073360
  43.2912350  73.3228810  49.9171830  43.2006730  70.3642170  35.5313630
  43.4809020  69.5210070  35.8873050  42.4272460  70.5965280  36.0452380
  34.5201220  72.6534560  32.9904630  34.8227120  72.6601990  32.0823780
  35.2595810  72.3032420  33.4872290  37.7386150  71.5969180  33.9760830
  37.3908150  70.9193170  33.3963280  37.9398920  71.1358690  34.7904220
  47.5787450  79.6018900  36.1417540  48.3406360  80.1715550  36.2477230
  47.5941820  79.0346100  36.9125850  31.0791790  78.1256830  40.3725200
  30.4240630  77.8568470  39.7284900  31.9169740  78.0161310  39.9227180
  44.0282230  72.9198120  34.5943690  44.4467110  72.7329100  33.7540350
  43.7218290  72.0677170  34.9046620  47.5271960  77.8322260  38.2919490
  47.1515560  77.0650190  37.8600780  46.7975080  78.2144960  38.7794420
  32.1167720  78.5109400  44.9128540  32.4840760  78.4236800  45.7924560
  31.5478540  77.7475950  44.8135400  46.9171580  76.9793780  47.9259010
  46.6857670  76.7506530  47.0256960  47.1776130  77.8993330  47.8803900
  31.6683720  75.4218490  48.8186960  30.7739770  75.3885250  49.1580670
  32.2081270  75.6205280  49.5838210  45.3559650  72.2050210  50.7038710
  46.2329830  72.2133610  51.0872710  45.3680490  71.4681050  50.0931060
  30.2929870  75.3355760  36.3150530  29.3893950  75.5985960  36.1402190
  30.7770490  75.6066930  35.5350490  46.8022920  76.0579750  41.5926730
  47.3260400  75.5642400  40.9616900  47.3882340  76.1930110  42.3374300
  46.9812640  76.1419620  45.1146280  46.0315350  76.1083160  45.2291270
  47.1625650  77.0519730  44.8796050  32.8357080  74.3921300  34.2244910
  33.5448780  73.9704520  33.7392190  32.1197020  74.4596530  33.5928260
  32.4831240  70.4460630  33.2647560  33.2059370  70.9869570  33.5828780
  32.7555760  70.1724050  32.3889100  46.2922890  75.3153100  37.5319140
  46.7882010  75.0823970  38.3168020  46.0938960  74.4764940  37.1156780
  32.1723430  69.6966820  43.1670180  32.8199620  69.1464200  42.7265340
  32.5925270  69.9509970  43.9885990  47.7210050  73.9514050  40.0656820
  47.6109330  73.7970090  41.0039090  48.4817640  73.4234990  39.8232230
  46.0675770  69.8908180  46.5239820  46.7047990  70.5042320  46.8899010
  46.2150660  69.9268840  45.5789050  48.6100320  71.7821970  33.3062960
  49.5349630  71.6503150  33.0981250  48.5876110  71.8614790  34.2599410
  48.6838810  72.5532630  35.9319670  47.8890310  72.4877750  36.4612580
  48.8882090  73.4883270  35.9205020  31.9255430  69.8522490  45.9095500
  31.5770250  70.3086310  46.6753680  31.5943130  68.9579620  45.9917930
  39.4380250  71.0434370  49.4314920  39.3769140  71.6356200  50.1810330
  40.3780630  70.9360330  49.2865180  42.0754810  70.7004430  49.0707210
  42.6895220  71.0183720  48.4088290  42.6204370  70.2153020  49.6903070
  32.5976070  69.3798690  49.1846270  33.1459060  69.1986740  48.4212380
  32.6631380  68.5892800  49.7202580  42.8162850  69.2636570  45.3976500
  41.9422690  69.5971680  45.1949430  42.7073600  68.7909750  46.2228370
  43.7234830  71.4707440  46.7818220  43.3948190  70.6559200  46.4019950
  44.6717130  71.4277250  46.6583910  40.5637670  70.1806410  44.3369410
  39.7809460  70.6551910  44.6166170  40.2700600  69.2761240  44.2282590
  45.1158740  70.8829510  42.3818500  45.5566830  70.8274610  41.5340100
  44.8466330  71.7987520  42.4528680  46.9797310  70.5144750  40.3927320
  46.9185710  69.5705970  40.2458340  47.7589340  70.6224840  40.9380780
  31.9078080  70.4853890  36.8583130  32.6657440  70.5982770  36.2847160
  31.4455250  71.3223090  36.8126560  38.4491890  72.5993160  39.8485440
  37.6366400  72.2250050  39.5081320  38.9533530  71.8438240  40.1506630
  42.9516870  69.2635610  41.0868510  43.5546240  69.8355820  41.5617030
  42.2109860  69.8275050  40.8642410  46.0951470  69.6657170  36.3608790
  46.2902100  70.5640620  36.6276220  45.3081340  69.4344250  36.8541740
  34.2803230  71.0117940  35.3985100  34.8095990  70.2247740  35.2693050
  34.9131550  71.6909130  35.6320630  36.4741070  70.7493080  38.4530490
  35.8443810  70.0480390  38.6200620  35.9346210  71.5097210  38.2363650
  36.5996630  70.0277060  50.8882980  36.3180900  70.5310660  50.1243800
  36.9816330  69.2298810  50.5225110  43.2012090  69.4430640  51.4663450
  43.0877540  69.7625250  52.3614970  44.0181830  69.8443150  51.1700730
  42.1070240  77.4623110  21.8298190  42.0264290  76.5477720  21.5589900
  41.6934660  77.9590180  21.1237900  40.2388280  79.2402130  23.7107460
  39.4630380  78.7602570  24.0006030  40.8901210  78.5607780  23.5363620
  34.2554110  79.5521940  24.5883220  33.4238990  79.2970650  24.9879730
  34.8635090  79.6232710  25.3241140  32.6646060  74.5123830  18.3725610
  31.7762760  74.8539800  18.2705490  32.9487250  74.3124150  17.4806440
  30.6279070  77.1129480  24.2565310  31.1995180  76.3451680  24.2568950
  30.6280610  77.4118240  23.3471920  31.8703940  72.5213840  26.0434240
  31.6906780  71.6239590  26.3237000  31.4684020  73.0685710  26.7181190
  40.7102440  74.7229700  23.9446550  41.0867260  73.8501580  23.8320220
  40.6121950  75.0588400  23.0536990  34.8407450  73.0955330  19.4063990
  34.9474200  73.9959060  19.7132750  33.9299810  73.0473300  19.1158640
  44.4926560  72.2180140  20.8774890  45.3136180  71.7276710  20.9200370
  44.5260640  72.8077800  21.6306730  32.4890610  75.0174340  24.6516580
  33.1700720  75.2812710  25.2703980  32.1738660  74.1775210  24.9854590
  36.6815180  76.0641700  23.7389170  37.1893400  76.5622670  24.3794190
  37.2128420  75.2876900  23.5628530  48.7826110  74.2346890  27.4418520
  48.0778280  74.6228600  26.9233630  49.0484030  74.9297180  28.0439450
  34.9651280  70.7040260  28.0052590  34.9669720  71.2212650  27.1998490
  34.1355590  70.2270440  27.9822520  44.7288040  74.1580520  23.6502430
  44.0243610  74.4465410  24.2305540  45.0900200  74.9680630  23.2901990
  34.6466610  72.4150220  26.0123040  34.9883420  73.2592270  25.7176910
  33.7082420  72.5633960  26.1288380  47.7974960  73.6035310  24.0411640
  46.8499870  73.6374290  24.1727070  48.1224950  74.4174260  24.4261000
  38.3294500  69.9032490  22.3367630  38.6369480  69.3479380  21.6203130
  37.3995200  70.0376950  22.1540620  40.7175260  77.9681320  19.0727750
  39.7904540  77.9018700  19.3016220  40.8700080  78.9061450  18.9582990
  40.7044340  74.2398320  16.0694910  39.7648010  74.4012280  16.1547370
  41.0227600  74.9584000  15.5230900  47.2257100  78.9216840  26.0473940
  46.3975730  78.9909930  25.5724070  47.8207580  79.5071150  25.5789770
  44.7472550  79.5301620  19.5763000  44.1284970  79.1921170  18.9289300
  44.7297000  78.8861380  20.2842190  44.1899110  75.7086160  26.9928810
  43.7770290  76.5339870  27.2468800  43.4575060  75.1231200  26.8005170
  36.3231900  78.4946060  21.8547480  35.9188900  77.7823310  21.3593380
  36.4095020  78.1499300  22.7435520  35.0360520  75.2689270  25.6346520
  35.5875110  75.3784610  24.8599770  35.5504030  75.6426870  26.3501750
  42.9237250  78.7688430  16.5835750  43.3630530  77.9310860  16.4373570
  43.6365670  79.4017830  16.6699890  34.7103250  78.7908630  29.2451860
  34.5711020  79.6631430  29.6139260  33.8284610  78.4481440  29.0999800
  46.5054390  70.0231240  14.8976790  46.1927050  70.1158070  15.7975860
  47.2666860  70.6012270  14.8474220  33.0236530  77.3891040  19.3554130
  32.9034130  78.1153130  18.7435400  32.7137420  76.6193950  18.8782040
  47.7155680  74.7602740  30.8750930  47.0999950  75.2682410  30.3466390
  47.3952100  73.8601070  30.8176870  35.4900190  70.7326110  22.7377800
  35.0468340  71.5135650  22.4062320  36.0485180  71.0556000  23.4448740
  39.7770000  73.5994630  28.3413120  39.3149370  73.8077650  29.1533060
  39.3748110  72.7853980  28.0383790  44.7774510  74.8203580  29.4709780
  43.9268100  74.5209330  29.7918850  44.6176300  75.0645590  28.5593600
  41.8724220  76.3205330  31.5708570  42.1977630  75.4869080  31.2310800
  42.6604550  76.8433850  31.7186900  38.6059010  70.3536810  17.6183630
  37.9813190  70.3496680  18.3436940  38.5189130  69.4867770  17.2219600
  37.5276090  71.2773440  24.5967400  37.8248420  72.1836270  24.5159420
  38.0761650  70.7892220  23.9826970  35.2814410  75.8559680  20.4659050
  35.0555330  75.6396850  21.3705670  34.5006940  76.2888140  20.1205020
  42.5112170  75.8623050  19.0649700  41.9121060  76.5858850  18.8813320
  43.0591780  75.7999830  18.2826150  37.7213620  76.7545260  31.1319320
  37.6257220  75.8139990  30.9819720  38.5645600  76.9760330  30.7367390
  41.1177040  74.4986590  21.0952980  41.5106610  74.8158790  20.2821670
  41.4793890  73.6198470  21.2097500  32.8524160  73.1658930  29.2853100
  32.4587550  74.0134140  29.4925880  32.1642560  72.5285300  29.4761740
  39.4269210  73.2493900  32.3549840  38.7367530  73.0566100  32.9895930
  40.1701510  73.5328540  32.8874140  30.1541210  71.0887390  23.3183180
  29.8654260  71.6590250  24.0308160  30.8986970  70.6091840  23.6814410
  30.3411440  75.0307510  14.5285900  30.2586110  75.9738270  14.6700890
  29.9894500  74.8882420  13.6498250  41.7032180  77.0892340  25.1903760
  40.9713300  77.5979150  25.5393860  41.3056520  76.2722320  24.8892540
  38.1409570  73.7646540  23.5956250  38.1445630  73.3236490  22.7460790
  39.0360690  74.0863870  23.7028070  33.9911950  73.6473030  22.5550460
  33.6512000  74.1248260  23.3117510  33.2289270  73.1938150  22.1951560
  38.2029720  74.7658620  16.5863010  38.3242540  74.7245100  17.5348830
  37.8178230  75.6282770  16.4309740  42.1658090  72.5426020  24.6026700
  42.1830830  72.9934670  25.4468550  41.9173670  71.6431660  24.8160140
  37.2151220  77.0759760  15.9846310  36.6468120  76.6278010  15.3582220
  37.9240220  77.4352540  15.4511460  45.5928840  69.9558200  30.4413080
  45.9174610  69.2247860  30.9671060  45.6285350  69.6371840  29.5394070
  38.4417540  77.8248320  25.3421660  38.8087670  77.3506890  26.0883000
  38.2522600  78.6989890  25.6830000  31.3058030  72.5692010  21.4715130
  31.0204950  72.2047680  22.3093750  31.2436890  71.8372470  20.8578270
  36.2316910  76.8656960  27.6605870  35.9273980  77.7448940  27.8856230
  37.1863370  76.9256750  27.6963310  40.9796620  71.4621270  18.1928500
  40.1661230  70.9634440  18.1173810  40.7858570  72.3019520  17.7764850
  40.9005480  80.1392370  29.9368110  40.8342790  79.2188040  29.6825700
  40.2710620  80.2367810  30.6512750  43.6945010  75.8340920  16.4890660
  44.5824630  76.1458150  16.3142000  43.6650100  74.9613170  16.0971240
  32.2880640  77.7059700  28.8077230  31.9295580  78.3713550  29.3950570
  31.9935200  76.8743250  29.1789850  35.4893760  78.1643940  31.6916780
  35.1893900  78.3101120  30.7944600  36.2605000  77.6049230  31.5990170
  45.9659280  77.1452760  15.9570520  45.8823000  77.5766980  15.1066960
  46.6853470  77.6051110  16.3897340  47.0433420  79.6020280  29.0340490
  46.3181610  80.1949060  28.8369880  47.5708880  79.5943820  28.2353860
  30.7988690  77.7050960  15.4311830  31.6683540  77.9875760  15.7147750
  30.3079010  78.5186830  15.3160640  37.9623500  79.0924170  19.5520110
  38.4186280  79.9029420  19.7780300  37.6111710  78.7747310  20.3838600
  33.8635280  69.4361820  20.0242630  33.7349910  69.4279720  20.9727550
  33.0397300  69.7744910  19.6733640  30.8629210  71.1952940  29.4849330
  30.1487730  71.3949860  30.0901940  31.2824250  70.4192510  29.8564130
  32.7835200  79.5224430  17.5593890  32.1763150  80.2623330  17.5689190
  33.2584550  79.6123790  16.7332090  42.3567990  73.6875250  27.2350780
  42.7248810  72.8670460  27.5630350  41.4966190  73.7477140  27.6506430
  45.7230020  72.6432190  18.0438340  45.0943180  72.7477860  17.3296570
  45.2281940  72.8628970  18.8332220  37.6914050  74.9218140  19.4596220
  36.9830200  75.3904480  19.9009830  37.9758530  74.2640150  20.0941410
  39.3169980  76.3414840  27.4588750  39.8155230  76.8160660  28.1240600
  39.4592930  75.4178360  27.6658780  41.7229480  71.6468800  20.8992010
  41.5997260  71.6654930  19.9501520  42.6714040  71.6947740  21.0190410
  35.8949070  73.2303220  16.8346930  36.7439600  73.6673370  16.7687120
  35.5280340  73.5423480  17.6618990  46.5236840  72.5582800  28.3017140
  46.0210440  73.2988200  28.6410950  47.3393500  72.9466800  27.9853930
  44.8158850  77.8015980  21.7478500  43.8748990  77.8166210  21.9226190
  45.1302920  77.0151940  22.1938800  34.7940490  79.4835580  15.3082460
  35.5603760  79.3716940  15.8707890  34.8715180  78.7873550  14.6559230
  33.4887250  76.9160650  15.9915350  33.5690840  75.9688160  16.1032750
  34.3807000  77.2467530  16.0976010  31.0158050  78.7375570  31.2271520
  31.5197070  78.1582850  31.7987750  30.2765470  79.0215800  31.7647890
  33.0481130  76.8805160  32.1221590  33.0886470  76.5819030  33.0306820
  33.9026630  77.2812770  31.9629110  36.8259520  79.4800710  17.2825100
  37.2475940  79.3140580  18.1256490  36.9510360  78.6700940  16.7880240
  34.9886940  75.4597260  30.0896080  34.4583400  74.9688210  29.4619420
  35.6575010  75.8881460  29.5554010  39.3387160  78.5038320  14.5302200
  39.8592820  77.7887340  14.1643350  39.9855560  79.1424190  14.8302710
  43.8865000  79.9266720  29.8537270  44.3006020  80.0811800  30.7027690
  42.9516000  80.0521940  30.0163050  44.3587170  77.2662880  31.8576420
  44.9407940  76.5115200  31.7696900  44.5348940  77.7970320  31.0807900
  35.4759240  72.4259630  30.1693370  35.3816110  71.8080380  29.4444240
  34.8956630  73.1525920  29.9423280  38.2420680  70.9832870  27.2020760
  37.7937980  71.0057130  26.3566310  37.6085880  70.5851890  27.7991060
  40.9844130  77.6103380  29.2071040  41.1040340  77.0144520  29.9465880
  41.8438130  77.6473070  28.7872340  43.3232030  78.1640570  27.7833550
  42.7967250  78.6883190  27.1798690  43.6663370  78.7967960  28.4143280
  35.7218420  75.5533940  14.2283260  35.5207480  74.6901300  14.5896600
  35.5510470  75.4667300  13.2904860  37.7512900  74.1524730  30.4646860
  38.3412590  73.8440580  31.1524680  36.9333140  73.6804480  30.6206760
  42.5706330  73.7690540  30.6979880  41.8821850  73.1072080  30.6329870
  43.2912350  73.3228810  31.1428340  43.2006730  70.3642170  16.7570140
  43.4809020  69.5210070  17.1129560  42.4272460  70.5965280  17.2708890
  34.5201220  72.6534560  14.2161140  34.8227120  72.6601990  13.3080290
  35.2595810  72.3032420  14.7128800  37.7386150  71.5969180  15.2017340
  37.3908150  70.9193170  14.6219790  37.9398920  71.1358690  16.0160730
  47.5787450  79.6018900  17.3674050  48.3406360  80.1715550  17.4733740
  47.5941820  79.0346100  18.1382360  31.0791790  78.1256830  21.5981710
  30.4240630  77.8568470  20.9541410  31.9169740  78.0161310  21.1483690
  44.0282230  72.9198120  15.8200200  44.4467110  72.7329100  14.9796860
  43.7218290  72.0677170  16.1303130  47.5271960  77.8322260  19.5176000
  47.1515560  77.0650190  19.0857290  46.7975080  78.2144960  20.0050930
  32.1167720  78.5109400  26.1385050  32.4840760  78.4236800  27.0181070
  31.5478540  77.7475950  26.0391910  46.9171580  76.9793780  29.1515520
  46.6857670  76.7506530  28.2513470  47.1776130  77.8993330  29.1060410
  31.6683720  75.4218490  30.0443470  30.7739770  75.3885250  30.3837180
  32.2081270  75.6205280  30.8094720  45.3559650  72.2050210  31.9295220
  46.2329830  72.2133610  32.3129220  45.3680490  71.4681050  31.3187570
  30.2929870  75.3355760  17.5407040  29.3893950  75.5985960  17.3658700
  30.7770490  75.6066930  16.7607000  46.8022920  76.0579750  22.8183240
  47.3260400  75.5642400  22.1873410  47.3882340  76.1930110  23.5630810
  46.9812640  76.1419620  26.3402790  46.0315350  76.1083160  26.4547780
  47.1625650  77.0519730  26.1052560  32.8357080  74.3921300  15.4501420
  33.5448780  73.9704520  14.9648700  32.1197020  74.4596530  14.8184770
  32.4831240  70.4460630  14.4904070  33.2059370  70.9869570  14.8085290
  32.7555760  70.1724050  13.6145610  46.2922890  75.3153100  18.7575650
  46.7882010  75.0823970  19.5424530  46.0938960  74.4764940  18.3413290
  32.1723430  69.6966820  24.3926690  32.8199620  69.1464200  23.9521850
  32.5925270  69.9509970  25.2142500  47.7210050  73.9514050  21.2913330
  47.6109330  73.7970090  22.2295600  48.4817640  73.4234990  21.0488740
  46.0675770  69.8908180  27.7496330  46.7047990  70.5042320  28.1155520
  46.2150660  69.9268840  26.8045560  48.6100320  71.7821970  14.5319470
  49.5349630  71.6503150  14.3237760  48.5876110  71.8614790  15.4855920
  48.6838810  72.5532630  17.1576180  47.8890310  72.4877750  17.6869090
  48.8882090  73.4883270  17.1461530  31.9255430  69.8522490  27.1352010
  31.5770250  70.3086310  27.9010190  31.5943130  68.9579620  27.2174440
  39.4380250  71.0434370  30.6571430  39.3769140  71.6356200  31.4066840
  40.3780630  70.9360330  30.5121690  42.0754810  70.7004430  30.2963720
  42.6895220  71.0183720  29.6344800  42.6204370  70.2153020  30.9159580
  32.5976070  69.3798690  30.4102780  33.1459060  69.1986740  29.6468890
  32.6631380  68.5892800  30.9459090  42.8162850  69.2636570  26.6233010
  41.9422690  69.5971680  26.4205940  42.7073600  68.7909750  27.4484880
  43.7234830  71.4707440  28.0074730  43.3948190  70.6559200  27.6276460
  44.6717130  71.4277250  27.8840420  40.5637670  70.1806410  25.5625920
  39.7809460  70.6551910  25.8422680  40.2700600  69.2761240  25.4539100
  45.1158740  70.8829510  23.6075010  45.5566830  70.8274610  22.7596610
  44.8466330  71.7987520  23.6785190  46.9797310  70.5144750  21.6183830
  46.9185710  69.5705970  21.4714850  47.7589340  70.6224840  22.1637290
  31.9078080  70.4853890  18.0839640  32.6657440  70.5982770  17.5103670
  31.4455250  71.3223090  18.0383070  38.4491890  72.5993160  21.0741950
  37.6366400  72.2250050  20.7337830  38.9533530  71.8438240  21.3763140
  42.9516870  69.2635610  22.3125020  43.5546240  69.8355820  22.7873540
  42.2109860  69.8275050  22.0898920  46.0951470  69.6657170  17.5865300
  46.2902100  70.5640620  17.8532730  45.3081340  69.4344250  18.0798250
  34.2803230  71.0117940  16.6241610  34.8095990  70.2247740  16.4949560
  34.9131550  71.6909130  16.8577140  36.4741070  70.7493080  19.6787000
  35.8443810  70.0480390  19.8457130  35.9346210  71.5097210  19.4620160
  36.5996630  70.0277060  32.1139490  36.3180900  70.5310660  31.3500310
  36.9816330  69.2298810  31.7481620  43.2012090  69.4430640  32.6919960
  43.0877540  69.7625250  33.5871480  44.0181830  69.8443150  32.3957240
  42.1070240  77.4623110   3.0554700  42.0264290  76.5477720   2.7846410
  41.6934660  77.9590180   2.3494410  40.2388280  79.2402130   4.9363970
  39.4630380  78.7602570   5.2262540  40.8901210  78.5607780   4.7620130
  34.2554110  79.5521940   5.8139730  33.4238990  79.2970650   6.2136240
  34.8635090  79.6232710   6.5497650  30.6279070  77.1129480   5.4821820
  31.1995180  76.3451680   5.4825460  30.6280610  77.4118240   4.5728430
  31.8703940  72.5213840   7.2690750  31.6906780  71.6239590   7.5493510
  31.4684020  73.0685710   7.9437700  40.7102440  74.7229700   5.1703060
  41.0867260  73.8501580   5.0576730  40.6121950  75.0588400   4.2793500
  44.4926560  72.2180140   2.1031400  45.3136180  71.7276710   2.1456880
  44.5260640  72.8077800   2.8563240  32.4890610  75.0174340   5.8773090
  33.1700720  75.2812710   6.4960490  32.1738660  74.1775210   6.2111100
  36.6815180  76.0641700   4.9645680  37.1893400  76.5622670   5.6050700
  37.2128420  75.2876900   4.7885040  48.7826110  74.2346890   8.6675030
  48.0778280  74.6228600   8.1490140  49.0484030  74.9297180   9.2695960
  34.9651280  70.7040260   9.2309100  34.9669720  71.2212650   8.4255000
  34.1355590  70.2270440   9.2079030  44.7288040  74.1580520   4.8758940
  44.0243610  74.4465410   5.4562050  45.0900200  74.9680630   4.5158500
  34.6466610  72.4150220   7.2379550  34.9883420  73.2592270   6.9433420
  33.7082420  72.5633960   7.3544890  47.7974960  73.6035310   5.2668150
  46.8499870  73.6374290   5.3983580  48.1224950  74.4174260   5.6517510
  38.3294500  69.9032490   3.5624140  38.6369480  69.3479380   2.8459640
  37.3995200  70.0376950   3.3797130  47.2257100  78.9216840   7.2730450
  46.3975730  78.9909930   6.7980580  47.8207580  79.5071150   6.8046280
  44.1899110  75.7086160   8.2185320  43.7770290  76.5339870   8.4725310
  43.4575060  75.1231200   8.0261680  36.3231900  78.4946060   3.0803990
  35.9188900  77.7823310   2.5849890  36.4095020  78.1499300   3.9692030
  35.0360520  75.2689270   6.8603030  35.5875110  75.3784610   6.0856280
  35.5504030  75.6426870   7.5758260  34.7103250  78.7908630  10.4708370
  34.5711020  79.6631430  10.8395770  33.8284610  78.4481440  10.3256310
  47.7155680  74.7602740  12.1007440  47.0999950  75.2682410  11.5722900
  47.3952100  73.8601070  12.0433380  35.4900190  70.7326110   3.9634310
  35.0468340  71.5135650   3.6318830  36.0485180  71.0556000   4.6705250
  39.7770000  73.5994630   9.5669630  39.3149370  73.8077650  10.3789570
  39.3748110  72.7853980   9.2640300  44.7774510  74.8203580  10.6966290
  43.9268100  74.5209330  11.0175360  44.6176300  75.0645590   9.7850110
  41.8724220  76.3205330  12.7965080  42.1977630  75.4869080  12.4567310
  42.6604550  76.8433850  12.9443410  37.5276090  71.2773440   5.8223910
  37.8248420  72.1836270   5.7415930  38.0761650  70.7892220   5.2083480
  37.7213620  76.7545260  12.3575830  37.6257220  75.8139990  12.2076230
  38.5645600  76.9760330  11.9623900  32.8524160  73.1658930  10.5109610
  32.4587550  74.0134140  10.7182390  32.1642560  72.5285300  10.7018250
  39.4269210  73.2493900  13.5806350  38.7367530  73.0566100  14.2152440
  40.1701510  73.5328540  14.1130650  30.1541210  71.0887390   4.5439690
  29.8654260  71.6590250   5.2564670  30.8986970  70.6091840   4.9070920
  41.7032180  77.0892340   6.4160270  40.9713300  77.5979150   6.7650370
  41.3056520  76.2722320   6.1149050  38.1409570  73.7646540   4.8212760
  38.1445630  73.3236490   3.9717300  39.0360690  74.0863870   4.9284580
  33.9911950  73.6473030   3.7806970  33.6512000  74.1248260   4.5374020
  33.2289270  73.1938150   3.4208070  42.1658090  72.5426020   5.8283210
  42.1830830  72.9934670   6.6725060  41.9173670  71.6431660   6.0416650
  45.5928840  69.9558200  11.6669590  45.9174610  69.2247860  12.1927570
  45.6285350  69.6371840  10.7650580  38.4417540  77.8248320   6.5678170
  38.8087670  77.3506890   7.3139510  38.2522600  78.6989890   6.9086510
  31.3058030  72.5692010   2.6971640  31.0204950  72.2047680   3.5350260
  31.2436890  71.8372470   2.0834780  36.2316910  76.8656960   8.8862380
  35.9273980  77.7448940   9.1112740  37.1863370  76.9256750   8.9219820
  40.9005480  80.1392370  11.1624620  40.8342790  79.2188040  10.9082210
  40.2710620  80.2367810  11.8769260  32.2880640  77.7059700  10.0333740
  31.9295580  78.3713550  10.6207080  31.9935200  76.8743250  10.4046360
  35.4893760  78.1643940  12.9173290  35.1893900  78.3101120  12.0201110
  36.2605000  77.6049230  12.8246680  47.0433420  79.6020280  10.2597000
  46.3181610  80.1949060  10.0626390  47.5708880  79.5943820   9.4610370
  30.8629210  71.1952940  10.7105840  30.1487730  71.3949860  11.3158450
  31.2824250  70.4192510  11.0820640  42.3567990  73.6875250   8.4607290
  42.7248810  72.8670460   8.7886860  41.4966190  73.7477140   8.8762940
  39.3169980  76.3414840   8.6845260  39.8155230  76.8160660   9.3497110
  39.4592930  75.4178360   8.8915290  46.5236840  72.5582800   9.5273650
  46.0210440  73.2988200   9.8667460  47.3393500  72.9466800   9.2110440
  44.8158850  77.8015980   2.9735010  43.8748990  77.8166210   3.1482700
  45.1302920  77.0151940   3.4195310  31.0158050  78.7375570  12.4528030
  31.5197070  78.1582850  13.0244260  30.2765470  79.0215800  12.9904400
  33.0481130  76.8805160  13.3478100  33.0886470  76.5819030  14.2563330
  33.9026630  77.2812770  13.1885620  34.9886940  75.4597260  11.3152590
  34.4583400  74.9688210  10.6875930  35.6575010  75.8881460  10.7810520
  43.8865000  79.9266720  11.0793780  44.3006020  80.0811800  11.9284200
  42.9516000  80.0521940  11.2419560  44.3587170  77.2662880  13.0832930
  44.9407940  76.5115200  12.9953410  44.5348940  77.7970320  12.3064410
  35.4759240  72.4259630  11.3949880  35.3816110  71.8080380  10.6700750
  34.8956630  73.1525920  11.1679790  38.2420680  70.9832870   8.4277270
  37.7937980  71.0057130   7.5822820  37.6085880  70.5851890   9.0247570
  40.9844130  77.6103380  10.4327550  41.1040340  77.0144520  11.1722390
  41.8438130  77.6473070  10.0128850  43.3232030  78.1640570   9.0090060
  42.7967250  78.6883190   8.4055200  43.6663370  78.7967960   9.6399790
  37.7512900  74.1524730  11.6903370  38.3412590  73.8440580  12.3781190
  36.9333140  73.6804480  11.8463270  42.5706330  73.7690540  11.9236390
  41.8821850  73.1072080  11.8586380  43.2912350  73.3228810  12.3684850
  31.0791790  78.1256830   2.8238220  30.4240630  77.8568470   2.1797920
  31.9169740  78.0161310   2.3740200  32.1167720  78.5109400   7.3641560
  32.4840760  78.4236800   8.2437580  31.5478540  77.7475950   7.2648420
  46.9171580  76.9793780  10.3772030  46.6857670  76.7506530   9.4769980
  47.1776130  77.8993330  10.3316920  31.6683720  75.4218490  11.2699980
  30.7739770  75.3885250  11.6093690  32.2081270  75.6205280  12.0351230
  45.3559650  72.2050210  13.1551730  46.2329830  72.2133610  13.5385730
  45.3680490  71.4681050  12.5444080  46.8022920  76.0579750   4.0439750
  47.3260400  75.5642400   3.4129920  47.3882340  76.1930110   4.7887320
  46.9812640  76.1419620   7.5659300  46.0315350  76.1083160   7.6804290
  47.1625650  77.0519730   7.3309070  32.1723430  69.6966820   5.6183200
  32.8199620  69.1464200   5.1778360  32.5925270  69.9509970   6.4399010
  47.7210050  73.9514050   2.5169840  47.6109330  73.7970090   3.4552110
  48.4817640  73.4234990   2.2745250  46.0675770  69.8908180   8.9752840
  46.7047990  70.5042320   9.3412030  46.2150660  69.9268840   8.0302070
  31.9255430  69.8522490   8.3608520  31.5770250  70.3086310   9.1266700
  31.5943130  68.9579620   8.4430950  39.4380250  71.0434370  11.8827940
  39.3769140  71.6356200  12.6323350  40.3780630  70.9360330  11.7378200
  42.0754810  70.7004430  11.5220230  42.6895220  71.0183720  10.8601310
  42.6204370  70.2153020  12.1416090  32.5976070  69.3798690  11.6359290
  33.1459060  69.1986740  10.8725400  32.6631380  68.5892800  12.1715600
  42.8162850  69.2636570   7.8489520  41.9422690  69.5971680   7.6462450
  42.7073600  68.7909750   8.6741390  43.7234830  71.4707440   9.2331240
  43.3948190  70.6559200   8.8532970  44.6717130  71.4277250   9.1096930
  40.5637670  70.1806410   6.7882430  39.7809460  70.6551910   7.0679190
  40.2700600  69.2761240   6.6795610  45.1158740  70.8829510   4.8331520
  45.5566830  70.8274610   3.9853120  44.8466330  71.7987520   4.9041700
  46.9797310  70.5144750   2.8440340  46.9185710  69.5705970   2.6971360
  47.7589340  70.6224840   3.3893800  38.4491890  72.5993160   2.2998460
  37.6366400  72.2250050   1.9594340  38.9533530  71.8438240   2.6019650
  42.9516870  69.2635610   3.5381530  43.5546240  69.8355820   4.0130050
  42.2109860  69.8275050   3.3155430  36.5996630  70.0277060  13.3396000
  36.3180900  70.5310660  12.5756820  36.9816330  69.2298810  12.9738130
  43.2012090  69.4430640  13.9176470  43.0877540  69.7625250  14.8127990
  44.0181830  69.8443150  13.6213750  42.1070240  58.6879620  96.9272150
  42.0264290  57.7734230  96.6563860  41.6934660  59.1846690  96.2211860
  40.2388280  60.4658640  98.8081420  39.4630380  59.9859080  99.0979990
  40.8901210  59.7864290  98.6337580  34.2554110  60.7778450  99.6857180
  33.4238990  60.5227160 100.0853690  34.8635090  60.8489220 100.4215100
  44.2595710  64.8718830  97.5880550  43.7977240  64.1006070  97.9167720
  45.0721260  64.8984900  98.0933000  34.2355370  64.8118540  99.8815200
  34.5383410  63.9216280  99.7025420  34.9798960  65.3688760  99.6537450
  32.6646060  55.7380340  93.4699570  31.7762760  56.0796310  93.3679450
  32.9487250  55.5380660  92.5780400  30.6279070  58.3385990  99.3539270
  31.1995180  57.5708190  99.3542910  30.6280610  58.6374750  98.4445880
  40.4859020  67.1576840  97.2084540  39.8670460  67.6134340  96.6378980
  41.3410800  67.3128300  96.8074240  39.6797270  63.1415830  98.8151580
  39.6105550  62.2005770  98.6540710  40.4417130  63.2317240  99.3874150
  40.7102440  55.9486210  99.0420510  41.0867260  55.0758090  98.9294180
  40.6121950  56.2844910  98.1510950  34.8407450  54.3211840  94.5037950
  34.9474200  55.2215570  94.8106710  33.9299810  54.2729810  94.2132600
  44.4926560  53.4436650  95.9748850  45.3136180  52.9533220  96.0174330
  44.5260640  54.0334310  96.7280690  32.4890610  56.2430850  99.7490540
  33.1700720  56.5069220 100.3677940  32.1738660  55.4031720 100.0828550
  36.6815180  57.2898210  98.8363130  37.1893400  57.7879180  99.4768150
  37.2128420  56.5133410  98.6602490  41.3522370  62.0416080  94.6016450
  40.7339640  62.5065530  94.0379170  41.8645620  62.7343560  95.0185960
  44.7288040  55.3837030  98.7476390  44.0243610  55.6721920  99.3279500
  45.0900200  56.1937140  98.3875950  34.6466610  53.6406730 101.1097000
  34.9883420  54.4848780 100.8150870  33.7082420  53.7890470 101.2262340
  30.7205570  62.7272610  91.9756080  30.3433550  63.2159710  91.2440980
  30.9778640  63.3997890  92.6062610  46.3450820  65.0012160 101.0103870
  45.6614340  65.6711270 101.0020540  46.8845110  65.1992810 100.2448730
  47.7974960  54.8291820  99.1385600  46.8499870  54.8630800  99.2701030
  48.1224950  55.6430770  99.5234960  38.3294500  51.1289000  97.4341590
  38.6369480  50.5735890  96.7177090  37.3995200  51.2633460  97.2514580
  43.8809560  66.8456290  99.7249050  43.8936720  66.4418580  98.8571310
  43.3284780  67.6203580  99.6210480  45.1754980  63.5672510  94.8139220
  45.0651310  62.6246840  94.9388640  45.1723230  63.9288150  95.7001980
  43.2795000  61.7486130 101.0531660  43.6963790  61.5346240 100.2185120
  44.0034820  62.0058920 101.6240280  40.7175260  59.1937830  94.1701710
  39.7904540  59.1275210  94.3990180  40.8700080  60.1317960  94.0556950
  40.7044340  55.4654830  91.1668870  39.7648010  55.6268790  91.2521330
  41.0227600  56.1840510  90.6204860  47.2257100  60.1473350 101.1447900
  46.3975730  60.2166440 100.6698030  47.8207580  60.7327660 100.6763730
  44.7472550  60.7558130  94.6736960  44.1284970  60.4177680  94.0263260
  44.7297000  60.1117890  95.3816150  36.3231900  59.7202570  96.9521440
  35.9188900  59.0079820  96.4567340  36.4095020  59.3755810  97.8409480
  36.7913600  63.4070130  99.1160650  36.4941890  62.8015600  98.4368430
  37.7413420  63.4447440  99.0050010  35.0360520  56.4945780 100.7320480
  35.5875110  56.6041120  99.9573730  35.5504030  56.8683380 101.4475710
  42.9237250  59.9944940  91.6809710  43.3630530  59.1567370  91.5347530
  43.6365670  60.6274340  91.7673850  41.0332630  64.9341010  95.6490950
  41.4728540  65.6765340  95.2346340  40.9719520  65.1767580  96.5729910
  46.5054390  51.2487750  89.9950750  46.1927050  51.3414580  90.8949820
  47.2666860  51.8268780  89.9448180  33.0236530  58.6147550  94.4528090
  32.9034130  59.3409640  93.8409360  32.7137420  57.8450460  93.9756000
  30.6621900  61.7862690 100.2596730  30.7402320  61.9211460  99.3152450
  31.2763580  61.0778580 100.4524850  31.9069530  63.4862880  96.6702910
  31.4997610  63.6277470  95.8156510  32.7982540  63.2023040  96.4674120
  43.7002810  67.9210130  93.0053960  43.5403950  67.6313070  93.9035790
  43.5349520  67.1450260  92.4699190  36.1791190  67.7008660  94.7825580
  36.0033670  66.7844200  94.5693380  35.3246930  68.0595950  95.0223380
  43.4028940  65.4297690  91.5651960  42.7094100  65.4274980  90.9054240
  44.1451800  65.0057010  91.1346130  42.9678870  67.0560400  95.6400450
  43.4235820  66.2749780  95.9539070  43.3071390  67.7667220  96.1841630
  35.4900190  51.9582620  97.8351760  35.0468340  52.7392160  97.5036280
  36.0485180  52.2812510  98.5422700  38.6059010  51.5793320  92.7157590
  37.9813190  51.5753190  93.4410900  38.5189130  50.7124280  92.3193560
  37.5276090  52.5029950  99.6941360  37.8248420  53.4092780  99.6133380
  38.0761650  52.0148730  99.0800930  35.2814410  57.0816190  95.5633010
  35.0555330  56.8653360  96.4679630  34.5006940  57.5144650  95.2178980
  42.5112170  57.0879560  94.1623660  41.9121060  57.8115360  93.9787280
  43.0591780  57.0256340  93.3800110  41.1177040  55.7243100  96.1926940
  41.5106610  56.0415300  95.3795630  41.4793890  54.8454980  96.3071460
  30.1541210  52.3143900  98.4157140  29.8654260  52.8846760  99.1282120
  30.8986970  51.8348350  98.7788370  30.3411440  56.2564020  89.6259860
  30.2586110  57.1994780  89.7674850  29.9894500  56.1138930  88.7472210
  41.7032180  58.3148850 100.2877720  40.9713300  58.8235660 100.6367820
  41.3056520  57.4978830  99.9866500  38.1409570  54.9903050  98.6930210
  38.1445630  54.5493000  97.8434750  39.0360690  55.3120380  98.8002030
  33.9911950  54.8729540  97.6524420  33.6512000  55.3504770  98.4091470
  33.2289270  54.4194660  97.2925520  38.2029720  55.9915130  91.6836970
  38.3242540  55.9501610  92.6322790  37.8178230  56.8539280  91.5283700
  42.1658090  53.7682530  99.7000660  42.1830830  54.2191180 100.5442510
  41.9173670  52.8688170  99.9134100  37.2151220  58.3016270  91.0820270
  36.6468120  57.8534520  90.4556180  37.9240220  58.6609050  90.5485420
  38.4417540  59.0504830 100.4395620  38.8087670  58.5763400 101.1856960
  38.2522600  59.9246400 100.7803960  31.3058030  53.7948520  96.5689090
  31.0204950  53.4304190  97.4067710  31.2436890  53.0628980  95.9552230
  34.7598700  62.2974460  93.3546680  33.9860960  61.7572080  93.1945400
  35.4893330  61.7781070  93.0164440  45.5186680  61.2939820  99.1473070
  46.2385800  61.7895110  98.7569180  45.3168500  60.6157710  98.5026940
  40.9796620  52.6877780  93.2902460  40.1661230  52.1890950  93.2147770
  40.7858570  53.5276030  92.8738810  43.6945010  57.0597430  91.5864620
  44.5824630  57.3714660  91.4115960  43.6650100  56.1869680  91.1945200
  34.8036100  61.9654840  96.9925490  35.3214770  61.1623100  96.9382380
  34.3520120  61.9033980  97.8342320  39.6905600  63.2321120  92.2652790
  40.0321300  63.9763350  91.7696110  38.8618310  63.5452240  92.6277620
  45.9659280  58.3709270  91.0544480  45.8823000  58.8023490  90.2040920
  46.6853470  58.8307620  91.4871300  46.9946530  65.2251530  93.7826610
  46.3522690  64.5707150  94.0570330  46.6077190  65.6306620  93.0067280
  42.5733010  62.5536960  97.6298300  42.9256830  61.9565090  96.9699670
  41.6895340  62.2281190  97.8006550  38.6596290  63.3134650  95.0368710
  39.3467420  63.8603860  95.4176300  37.8728710  63.8575380  95.0718320
  30.7988690  58.9307470  90.5285790  31.6683540  59.2132270  90.8121710
  30.3079010  59.7443340  90.4134600  37.9623500  60.3180680  94.6494070
  38.4186280  61.1285930  94.8754260  37.6111710  60.0003820  95.4812560
  33.8635280  50.6618330  95.1216590  33.7349910  50.6536230  96.0701510
  33.0397300  51.0001420  94.7707600  41.5388190  63.8319370 100.5963820
  42.1810420  63.1312530 100.7095990  42.0637540  64.6117810 100.4160710
  45.3843910  64.1167990  90.3202960  45.1581490  63.3998430  90.9127600
  44.9940110  63.8680430  89.4824710  31.1659940  68.1434850  91.0947420
  31.5257580  68.7424190  90.4404690  31.0252280  68.6894740  91.8682450
  44.9660160  62.0339930  91.9817120  44.6781860  62.4952620  92.7695000
  45.7612330  61.5737700  92.2501340  37.1828560  65.5266050  91.9121090
  37.1738660  66.2595740  91.2965600  36.2626920  65.2797630  92.0048050
  32.7835200  60.7480940  92.6567850  32.1763150  61.4879840  92.6663150
  33.2584550  60.8380300  91.8306050  45.7230020  53.8688700  93.1412300
  45.0943180  53.9734370  92.4270530  45.2281940  54.0885480  93.9306180
  40.1688160  65.5894290  90.5746280  40.2700140  65.3858280  89.6448260
  39.2689900  65.3352570  90.7794060  37.6914050  56.1474650  94.5570180
  36.9830200  56.6160990  94.9983790  37.9758530  55.4896660  95.1915370
  41.7229480  52.8725310  95.9965970  41.5997260  52.8911440  95.0475480
  42.6714040  52.9204250  96.1164370  38.8106270  68.1080610  95.2693950
  39.0647770  68.0702000  94.3473320  37.8618750  67.9813940  95.2622200
  35.8949070  54.4559730  91.9320890  36.7439600  54.8929880  91.8661080
  35.5280340  54.7679990  92.7592950  44.8158850  59.0272490  96.8452460
  43.8748990  59.0422720  97.0200150  45.1302920  58.2408450  97.2912760
  34.7940490  60.7092090  90.4056420  35.5603760  60.5973450  90.9681850
  34.8715180  60.0130060  89.7533190  33.4887250  58.1417160  91.0889310
  33.5690840  57.1944670  91.2006710  34.3807000  58.4724040  91.1949970
  46.8184430  66.1981340  98.5206720  46.9431850  67.0212510  98.9930530
  47.6849990  65.9872070  98.1730870  34.2901960  68.2912550  98.1923850
  35.0264440  67.7428010  98.4632420  34.6742880  69.1568560  98.0529840
  31.1747440  64.3586120  94.0665360  30.2487220  64.6007260  94.0570770
  31.6403870  65.1860380  93.9450110  37.4004270  67.4642860  90.0149420
  38.1932880  67.7531690  89.5631210  36.8808620  67.0335030  89.3361900
  46.4534440  66.6912990  91.4386160  46.1675950  66.2778130  90.6240340
  46.2553990  67.6200700  91.3186680  37.9181670  62.6846270  89.8791770
  37.8132310  62.0698620  90.6053150  37.7505890  62.1612160  89.0954780
  41.1584400  61.7466300  90.4833760  40.6094500  62.1935600  91.1276500
  41.7803660  61.2415550  91.0071430  36.8259520  60.7057220  92.3799060
  37.2475940  60.5397090  93.2230450  36.9510360  59.8957450  91.8854200
  39.3387160  59.7294830  89.6276160  39.8592820  59.0143850  89.2617310
  39.9855560  60.3680700  89.9276670  35.7218420  56.7790450  89.3257220
  35.5207480  55.9157810  89.6870560  35.5510470  56.6923810  88.3878820
  43.2006730  51.5898680  91.8544100  43.4809020  50.7466580  92.2103520
  42.4272460  51.8221790  92.3682850  34.5201220  53.8791070  89.3135100
  34.8227120  53.8858500  88.4054250  35.2595810  53.5288930  89.8102760
  37.7386150  52.8225690  90.2991300  37.3908150  52.1449680  89.7193750
  37.9398920  52.3615200  91.1134690  39.9035190  67.8106440  91.9177900
  40.7985980  68.1491410  91.9396660  39.9352820  67.0885850  91.2902180
  33.5431350  63.1833490  90.1464900  33.9806220  63.7263160  90.8022480
  34.0279080  62.3580440  90.1561240  30.7577150  65.9722520  97.5985160
  31.0880160  65.1043580  97.3663800  31.1868150  66.1781040  98.4290120
  35.3539070  64.3031530  95.2587130  35.0534610  64.1796500  96.1591040
  35.2476560  63.4440120  94.8502860  31.2467360  66.8393110 100.3366790
  30.8098350  67.0193910 101.1690940  31.8145040  67.5967730 100.1948510
  48.1230990  64.0827930  89.9613810  47.2923950  64.1504580  90.4321040
  48.3002820  64.9732050  89.6580670  47.5787450  60.8275410  92.4648010
  48.3406360  61.3972060  92.5707700  47.5941820  60.2602610  93.2356320
  31.0791790  59.3513340  96.6955670  30.4240630  59.0824980  96.0515370
  31.9169740  59.2417820  96.2457650  48.5847420  61.6825510  97.3089940
  48.9556250  60.8992830  96.9025910  49.2249350  62.3714610  97.1307240
  47.6306620  61.1209780  89.6220530  47.9055460  62.0288660  89.4939750
  47.4417360  61.0572310  90.5582520  44.0282230  54.1454630  90.9174160
  44.4467110  53.9585610  90.0770820  43.7218290  53.2933680  91.2277090
  47.5271960  59.0578770  94.6149960  47.1515560  58.2906700  94.1831250
  46.7975080  59.4401470  95.1024890  30.2929870  56.5612270  92.6381000
  29.3893950  56.8242470  92.4632660  30.7770490  56.8323440  91.8580960
  46.8022920  57.2836260  97.9157200  47.3260400  56.7898910  97.2847370
  47.3882340  57.4186620  98.6604770  46.9812640  57.3676130 101.4376750
  46.0315350  57.3339670 101.5521740  47.1625650  58.2776240 101.2026520
  32.8357080  55.6177810  90.5475380  33.5448780  55.1961030  90.0622660
  32.1197020  55.6853040  89.9158730  32.4831240  51.6717140  89.5878030
  33.2059370  52.2126080  89.9059250  32.7555760  51.3980560  88.7119570
  46.2922890  56.5409610  93.8549610  46.7882010  56.3080480  94.6398490
  46.0938960  55.7021450  93.4387250  32.1723430  50.9223330  99.4900650
  32.8199620  50.3720710  99.0495810  32.5925270  51.1766480 100.3116460
  47.7210050  55.1770560  96.3887290  47.6109330  55.0226600  97.3269560
  48.4817640  54.6491500  96.1462700  48.6100320  53.0078480  89.6293430
  49.5349630  52.8759660  89.4211720  48.5876110  53.0871300  90.5829880
  48.6838810  53.7789140  92.2550140  47.8890310  53.7134260  92.7843050
  48.8882090  54.7139780  92.2435490  45.6257230  67.8180690  96.2488530
  46.2216300  67.4965260  95.5722950  45.8835380  67.3452510  97.0401800
  46.1769440  68.4675990 100.0786260  45.7172410  69.2191800  99.7044280
  45.5481900  67.7482460 100.0201060  36.6065160  66.7764230  99.2534390
  37.1230180  66.1651590  98.7282650  37.2562540  67.2793010  99.7445400
  39.3460660  67.6672720 100.0803370  39.6338470  67.4127020  99.2036380
  39.8583880  67.1150080 100.6708940  40.5637670  51.4062920 100.6599880
  39.7809460  51.8808420 100.9396640  40.2700600  50.5017750 100.5513060
  45.1158740  52.1086020  98.7048970  45.5566830  52.0531120  97.8570570
  44.8466330  53.0244030  98.7759150  46.9797310  51.7401260  96.7157790
  46.9185710  50.7962480  96.5688810  47.7589340  51.8481350  97.2611250
  31.2850060  67.8793620  95.6781740  31.1172100  67.2464300  96.3763630
  30.4184570  68.0853020  95.3275930  31.9078080  51.7110400  93.1813600
  32.6657440  51.8239280  92.6077630  31.4455250  52.5479600  93.1357030
  38.4491890  53.8249670  96.1715910  37.6366400  53.4506560  95.8311790
  38.9533530  53.0694750  96.4737100  42.9516870  50.4892120  97.4098980
  43.5546240  51.0612330  97.8847500  42.2109860  51.0531560  97.1872880
  46.0951470  50.8913680  92.6839260  46.2902100  51.7897130  92.9506690
  45.3081340  50.6600760  93.1772210  32.8912760  66.5726850  93.1231880
  32.3660380  66.9534880  92.4193840  32.8157340  67.1977620  93.8441590
  34.2803230  52.2374450  91.7215570  34.8095990  51.4504250  91.5923520
  34.9131550  52.9165640  91.9551100  36.4741070  51.9749590  94.7760960
  35.8443810  51.2736900  94.9431090  35.9346210  52.7353720  94.5594120
  47.6478080  68.1314390  94.4445820  47.8230270  67.4452130  93.8006740
  46.9499650  68.6561440  94.0522490  35.4905730  68.5209230  91.9981130
  36.2224550  68.2368510  91.4505020  35.7499400  68.2822510  92.8880510
  34.6520520  64.6373960  92.0027460  34.0229400  65.1059060  92.5513290
  34.7668350  63.7923180  92.4373650  42.1070240  58.6879620  78.1528660
  42.0264290  57.7734230  77.8820370  41.6934660  59.1846690  77.4468370
  40.2388280  60.4658640  80.0337930  39.4630380  59.9859080  80.3236500
  40.8901210  59.7864290  79.8594090  34.2554110  60.7778450  80.9113690
  33.4238990  60.5227160  81.3110200  34.8635090  60.8489220  81.6471610
  44.2595710  64.8718830  78.8137060  43.7977240  64.1006070  79.1424230
  45.0721260  64.8984900  79.3189510  34.2355370  64.8118540  81.1071710
  34.5383410  63.9216280  80.9281930  34.9798960  65.3688760  80.8793960
  32.6646060  55.7380340  74.6956080  31.7762760  56.0796310  74.5935960
  32.9487250  55.5380660  73.8036910  30.6279070  58.3385990  80.5795780
  31.1995180  57.5708190  80.5799420  30.6280610  58.6374750  79.6702390
  40.4859020  67.1576840  78.4341050  39.8670460  67.6134340  77.8635490
  41.3410800  67.3128300  78.0330750  39.6797270  63.1415830  80.0408090
  39.6105550  62.2005770  79.8797220  40.4417130  63.2317240  80.6130660
  31.8703940  53.7470350  82.3664710  31.6906780  52.8496100  82.6467470
  31.4684020  54.2942220  83.0411660  40.7102440  55.9486210  80.2677020
  41.0867260  55.0758090  80.1550690  40.6121950  56.2844910  79.3767460
  34.8407450  54.3211840  75.7294460  34.9474200  55.2215570  76.0363220
  33.9299810  54.2729810  75.4389110  44.4926560  53.4436650  77.2005360
  45.3136180  52.9533220  77.2430840  44.5260640  54.0334310  77.9537200
  32.4890610  56.2430850  80.9747050  33.1700720  56.5069220  81.5934450
  32.1738660  55.4031720  81.3085060  36.6815180  57.2898210  80.0619640
  37.1893400  57.7879180  80.7024660  37.2128420  56.5133410  79.8859000
  48.7826110  55.4603400  83.7648990  48.0778280  55.8485110  83.2464100
  49.0484030  56.1553690  84.3669920  34.9651280  51.9296770  84.3283060
  34.9669720  52.4469160  83.5228960  34.1355590  51.4526950  84.3052990
  41.3522370  62.0416080  75.8272960  40.7339640  62.5065530  75.2635680
  41.8645620  62.7343560  76.2442470  36.2154130  61.5691950  82.5056560
  35.8823510  62.1960870  83.1477630  36.3920810  62.0953830  81.7258230
  44.7288040  55.3837030  79.9732900  44.0243610  55.6721920  80.5536010
  45.0900200  56.1937140  79.6132460  34.6466610  53.6406730  82.3353510
  34.9883420  54.4848780  82.0407380  33.7082420  53.7890470  82.4518850
  35.4273230  63.5372750  84.3205740  36.0447230  64.2123830  84.0390190
  34.5666350  63.9460730  84.2293240  30.7205570  62.7272610  73.2012590
  30.3433550  63.2159710  72.4697490  30.9778640  63.3997890  73.8319120
  46.3450820  65.0012160  82.2360380  45.6614340  65.6711270  82.2277050
  46.8845110  65.1992810  81.4705240  47.7974960  54.8291820  80.3642110
  46.8499870  54.8630800  80.4957540  48.1224950  55.6430770  80.7491470
  38.3294500  51.1289000  78.6598100  38.6369480  50.5735890  77.9433600
  37.3995200  51.2633460  78.4771090  43.8809560  66.8456290  80.9505560
  43.8936720  66.4418580  80.0827820  43.3284780  67.6203580  80.8466990
  45.1754980  63.5672510  76.0395730  45.0651310  62.6246840  76.1645150
  45.1723230  63.9288150  76.9258490  43.2795000  61.7486130  82.2788170
  43.6963790  61.5346240  81.4441630  44.0034820  62.0058920  82.8496790
  40.7175260  59.1937830  75.3958220  39.7904540  59.1275210  75.6246690
  40.8700080  60.1317960  75.2813460  40.7044340  55.4654830  72.3925380
  39.7648010  55.6268790  72.4777840  41.0227600  56.1840510  71.8461370
  47.2257100  60.1473350  82.3704410  46.3975730  60.2166440  81.8954540
  47.8207580  60.7327660  81.9020240  44.7472550  60.7558130  75.8993470
  44.1284970  60.4177680  75.2519770  44.7297000  60.1117890  76.6072660
  44.1899110  56.9342670  83.3159280  43.7770290  57.7596380  83.5699270
  43.4575060  56.3487710  83.1235640  36.3231900  59.7202570  78.1777950
  35.9188900  59.0079820  77.6823850  36.4095020  59.3755810  79.0665990
  36.7913600  63.4070130  80.3417160  36.4941890  62.8015600  79.6624940
  37.7413420  63.4447440  80.2306520  35.0360520  56.4945780  81.9576990
  35.5875110  56.6041120  81.1830240  35.5504030  56.8683380  82.6732220
  44.8799210  66.9802000  84.0040260  44.4029770  67.7874190  83.8112870
  44.1961000  66.3280330  84.1566470  35.8832030  63.1451820  86.9924960
  34.9860560  63.3691790  87.2398360  35.9084900  63.2686760  86.0436360
  42.9237250  59.9944940  72.9066220  43.3630530  59.1567370  72.7604040
  43.6365670  60.6274340  72.9930360  34.7103250  60.0165140  85.5682330
  34.5711020  60.8887940  85.9369730  33.8284610  59.6737950  85.4230270
  41.0332630  64.9341010  76.8747460  41.4728540  65.6765340  76.4602850
  40.9719520  65.1767580  77.7986420  36.5083600  65.9586840  87.7767480
  36.4799030  66.3629790  86.9095910  36.3448570  65.0297200  87.6139080
  46.5054390  51.2487750  71.2207260  46.1927050  51.3414580  72.1206330
  47.2666860  51.8268780  71.1704690  33.0236530  58.6147550  75.6784600
  32.9034130  59.3409640  75.0665870  32.7137420  57.8450460  75.2012510
  48.4598420  66.7413940  89.0731650  48.9358140  67.2196830  89.7520730
  49.0805580  66.6731430  88.3477150  30.6621900  61.7862690  81.4853240
  30.7402320  61.9211460  80.5408960  31.2763580  61.0778580  81.6781360
  31.9069530  63.4862880  77.8959420  31.4997610  63.6277470  77.0413020
  32.7982540  63.2023040  77.6930630  47.8631670  63.9326790  86.2331660
  47.9894730  63.6938670  85.3148840  47.9053050  63.1011330  86.7053740
  41.7248410  67.6354790  84.8026470  42.2393080  67.5462800  85.6048900
  40.8817490  67.9814490  85.0954380  43.7002810  67.9210130  74.2310470
  43.5403950  67.6313070  75.1292300  43.5349520  67.1450260  73.6955700
  36.1791190  67.7008660  76.0082090  36.0033670  66.7844200  75.7949890
  35.3246930  68.0595950  76.2479890  43.4028940  65.4297690  72.7908470
  42.7094100  65.4274980  72.1310750  44.1451800  65.0057010  72.3602640
  42.9678870  67.0560400  76.8656960  43.4235820  66.2749780  77.1795580
  43.3071390  67.7667220  77.4098140  47.7155680  55.9859250  87.1981400
  47.0999950  56.4938920  86.6696860  47.3952100  55.0857580  87.1407340
  30.7181420  62.8276860  84.0247700  30.8812460  62.3582220  83.2067070
  31.1833870  62.3200420  84.6896540  35.4900190  51.9582620  79.0608270
  35.0468340  52.7392160  78.7292790  36.0485180  52.2812510  79.7679210
  39.7770000  54.8251140  84.6643590  39.3149370  55.0334160  85.4763530
  39.3748110  54.0110490  84.3614260  44.7774510  56.0460090  85.7940250
  43.9268100  55.7465840  86.1149320  44.6176300  56.2902100  84.8824070
  41.8724220  57.5461840  87.8939040  42.1977630  56.7125590  87.5541270
  42.6604550  58.0690360  88.0417370  37.5276090  52.5029950  80.9197870
  37.8248420  53.4092780  80.8389890  38.0761650  52.0148730  80.3057440
  35.2814410  57.0816190  76.7889520  35.0555330  56.8653360  77.6936140
  34.5006940  57.5144650  76.4435490  42.5112170  57.0879560  75.3880170
  41.9121060  57.8115360  75.2043790  43.0591780  57.0256340  74.6056620
  37.7213620  57.9801770  87.4549790  37.6257220  57.0396500  87.3050190
  38.5645600  58.2016840  87.0597860  41.1177040  55.7243100  77.4183450
  41.5106610  56.0415300  76.6052140  41.4793890  54.8454980  77.5327970
  32.8524160  54.3915440  85.6083570  32.4587550  55.2390650  85.8156350
  32.1642560  53.7541810  85.7992210  39.4269210  54.4750410  88.6780310
  38.7367530  54.2822610  89.3126400  40.1701510  54.7585050  89.2104610
  41.7032180  58.3148850  81.5134230  40.9713300  58.8235660  81.8624330
  41.3056520  57.4978830  81.2123010  38.1409570  54.9903050  79.9186720
  38.1445630  54.5493000  79.0691260  39.0360690  55.3120380  80.0258540
  33.9911950  54.8729540  78.8780930  33.6512000  55.3504770  79.6347980
  33.2289270  54.4194660  78.5182030  38.2029720  55.9915130  72.9093480
  38.3242540  55.9501610  73.8579300  37.8178230  56.8539280  72.7540210
  42.1658090  53.7682530  80.9257170  42.1830830  54.2191180  81.7699020
  41.9173670  52.8688170  81.1390610  37.2151220  58.3016270  72.3076780
  36.6468120  57.8534520  71.6812690  37.9240220  58.6609050  71.7741930
  45.5928840  51.1814710  86.7643550  45.9174610  50.4504370  87.2901530
  45.6285350  50.8628350  85.8624540  32.2920400  62.2028290  86.1843510
  31.9075190  61.5621960  86.7826470  32.6032590  62.9064410  86.7538240
  38.4417540  59.0504830  81.6652130  38.8087670  58.5763400  82.4113470
  38.2522600  59.9246400  82.0060470  36.2316910  58.0913470  83.9836340
  35.9273980  58.9705450  84.2086700  37.1863370  58.1513260  84.0193780
  34.7598700  62.2974460  74.5803190  33.9860960  61.7572080  74.4201910
  35.4893330  61.7781070  74.2420950  45.5186680  61.2939820  80.3729580
  46.2385800  61.7895110  79.9825690  45.3168500  60.6157710  79.7283450
  40.9005480  61.3648880  86.2598580  40.8342790  60.4444550  86.0056170
  40.2710620  61.4624320  86.9743220  43.6945010  57.0597430  72.8121130
  44.5824630  57.3714660  72.6372470  43.6650100  56.1869680  72.4201710
  34.8036100  61.9654840  78.2182000  35.3214770  61.1623100  78.1638890
  34.3520120  61.9033980  79.0598830  39.6905600  63.2321120  73.4909300
  40.0321300  63.9763350  72.9952620  38.8618310  63.5452240  73.8534130
  32.2880640  58.9316210  85.1307700  31.9295580  59.5970060  85.7181040
  31.9935200  58.0999760  85.5020320  35.4893760  59.3900450  88.0147250
  35.1893900  59.5357630  87.1175070  36.2605000  58.8305740  87.9220640
  40.8322210  64.1869450  86.0102380  40.8466750  63.2550410  85.7921290
  40.1247310  64.2729210  86.6492150  45.9659280  58.3709270  72.2800990
  45.8823000  58.8023490  71.4297430  46.6853470  58.8307620  72.7127810
  47.0433420  60.8276790  85.3570960  46.3181610  61.4205570  85.1600350
  47.5708880  60.8200330  84.5584330  46.9946530  65.2251530  75.0083120
  46.3522690  64.5707150  75.2826840  46.6077190  65.6306620  74.2323790
  42.5733010  62.5536960  78.8554810  42.9256830  61.9565090  78.1956180
  41.6895340  62.2281190  79.0263060  38.6596290  63.3134650  76.2625220
  39.3467420  63.8603860  76.6432810  37.8728710  63.8575380  76.2974830
  30.7988690  58.9307470  71.7542300  31.6683540  59.2132270  72.0378220
  30.3079010  59.7443340  71.6391110  37.9623500  60.3180680  75.8750580
  38.4186280  61.1285930  76.1010770  37.6111710  60.0003820  76.7069070
  40.2656110  65.8287020  83.1042880  40.9098330  66.0346400  83.7816300
  40.6285550  65.0675420  82.6513730  41.5388190  63.8319370  81.8220330
  42.1810420  63.1312530  81.9352500  42.0637540  64.6117810  81.6417220
  45.3843910  64.1167990  71.5459470  45.1581490  63.3998430  72.1384110
  44.9940110  63.8680430  70.7081220  43.3125810  64.6314270  85.0256390
  43.6482050  65.2180960  85.7034310  42.3926150  64.5006980  85.2554180
  31.1659940  68.1434850  72.3203930  31.5257580  68.7424190  71.6661200
  31.0252280  68.6894740  73.0938960  30.8629210  52.4209450  85.8079800
  30.1487730  52.6206370  86.4132410  31.2824250  51.6449020  86.1794600
  44.9660160  62.0339930  73.2073630  44.6781860  62.4952620  73.9951510
  45.7612330  61.5737700  73.4757850  31.1501800  66.4089710  86.7946330
  31.2592920  65.4684450  86.6541720  30.4982360  66.6744460  86.1460060
  39.1414390  64.6805600  88.1944450  38.8211260  63.9614840  88.7390140
  38.4672750  65.3560670  88.2680510  37.1828560  65.5266050  73.1377600
  37.1738660  66.2595740  72.5222110  36.2626920  65.2797630  73.2304560
  32.7835200  60.7480940  73.8824360  32.1763150  61.4879840  73.8919660
  33.2584550  60.8380300  73.0562560  42.3567990  54.9131760  83.5581250
  42.7248810  54.0926970  83.8860820  41.4966190  54.9733650  83.9736900
  45.7230020  53.8688700  74.3668810  45.0943180  53.9734370  73.6527040
  45.2281940  54.0885480  75.1562690  40.1688160  65.5894290  71.8002790
  40.2700140  65.3858280  70.8704770  39.2689900  65.3352570  72.0050570
  37.6914050  56.1474650  75.7826690  36.9830200  56.6160990  76.2240300
  37.9758530  55.4896660  76.4171880  39.3169980  57.5671350  83.7819220
  39.8155230  58.0417170  84.4471070  39.4592930  56.6434870  83.9889250
  41.7229480  52.8725310  77.2222480  41.5997260  52.8911440  76.2731990
  42.6714040  52.9204250  77.3420880  38.8106270  68.1080610  76.4950460
  39.0647770  68.0702000  75.5729830  37.8618750  67.9813940  76.4878710
  35.8949070  54.4559730  73.1577400  36.7439600  54.8929880  73.0917590
  35.5280340  54.7679990  73.9849460  46.5236840  53.7839310  84.6247610
  46.0210440  54.5244710  84.9641420  47.3393500  54.1723310  84.3084400
  44.8158850  59.0272490  78.0708970  43.8748990  59.0422720  78.2456660
  45.1302920  58.2408450  78.5169270  34.7940490  60.7092090  71.6312930
  35.5603760  60.5973450  72.1938360  34.8715180  60.0130060  70.9789700
  33.4887250  58.1417160  72.3145820  33.5690840  57.1944670  72.4263220
  34.3807000  58.4724040  72.4206480  46.8184430  66.1981340  79.7463230
  46.9431850  67.0212510  80.2187040  47.6849990  65.9872070  79.3987380
  34.2901960  68.2912550  79.4180360  35.0264440  67.7428010  79.6888930
  34.6742880  69.1568560  79.2786350  31.1747440  64.3586120  75.2921870
  30.2487220  64.6007260  75.2827280  31.6403870  65.1860380  75.1706620
  33.2960240  67.4758620  88.6065940  34.0972970  67.7970670  89.0201340
  32.7812060  67.1154200  89.3285850  37.4004270  67.4642860  71.2405930
  38.1932880  67.7531690  70.7887720  36.8808620  67.0335030  70.5618410
  42.1324870  63.5838490  88.5541350  41.5263030  63.6070090  87.8137100
  41.8278980  62.8521530  89.0908600  43.5625240  67.3118780  87.1650760
  44.5146990  67.2276800  87.1151000  43.4153460  67.9760490  87.8384550
  46.4534440  66.6912990  72.6642670  46.1675950  66.2778130  71.8496850
  46.2553990  67.6200700  72.5443190  31.0158050  59.9632080  87.5501990
  31.5197070  59.3839360  88.1218220  30.2765470  60.2472310  88.0878360
  37.9181670  62.6846270  71.1048280  37.8132310  62.0698620  71.8309660
  37.7505890  62.1612160  70.3211290  38.0695990  61.3703070  87.0837510
  37.3041660  61.9388070  86.9992180  38.2511950  61.0779280  86.1905740
  41.1584400  61.7466300  71.7090270  40.6094500  62.1935600  72.3533010
  41.7803660  61.2415550  72.2327940  45.2119340  63.1008400  87.6412530
  45.9528810  63.4384160  87.1379990  44.4492020  63.2700460  87.0882300
  33.0481130  58.1061670  88.4452060  33.0886470  57.8075540  89.3537290
  33.9026630  58.5069280  88.2859580  36.8259520  60.7057220  73.6055570
  37.2475940  60.5397090  74.4486960  36.9510360  59.8957450  73.1110710
  34.9886940  56.6853770  86.4126550  34.4583400  56.1944720  85.7849890
  35.6575010  57.1137970  85.8784480  39.3387160  59.7294830  70.8532670
  39.8592820  59.0143850  70.4873820  39.9855560  60.3680700  71.1533180
  43.8865000  61.1523230  86.1767740  44.3006020  61.3068310  87.0258160
  42.9516000  61.2778450  86.3393520  44.3587170  58.4919390  88.1806890
  44.9407940  57.7371710  88.0927370  44.5348940  59.0226830  87.4038370
  35.4759240  53.6516140  86.4923840  35.3816110  53.0336890  85.7674710
  34.8956630  54.3782430  86.2653750  38.2420680  52.2089380  83.5251230
  37.7937980  52.2313640  82.6796780  37.6085880  51.8108400  84.1221530
  38.6480230  61.1043710  84.1463670  39.0668340  61.9476440  83.9739910
  37.7288860  61.2415750  83.9170450  40.9844130  58.8359890  85.5301510
  41.1040340  58.2401030  86.2696350  41.8438130  58.8729580  85.1102810
  43.3232030  59.3897080  84.1064020  42.7967250  59.9139700  83.5029160
  43.6663370  60.0224470  84.7373750  35.7218420  56.7790450  70.5513730
  35.5207480  55.9157810  70.9127070  35.5510470  56.6923810  69.6135330
  36.4987650  67.4096720  85.2621400  35.9608740  68.1342780  84.9430100
  36.7521610  66.9327060  84.4718740  37.7512900  55.3781240  86.7877330
  38.3412590  55.0697090  87.4755150  36.9333140  54.9060990  86.9437230
  42.5706330  54.9947050  87.0210350  41.8821850  54.3328590  86.9560340
  43.2912350  54.5485320  87.4658810  43.2006730  51.5898680  73.0800610
  43.4809020  50.7466580  73.4360030  42.4272460  51.8221790  73.5939360
  34.5201220  53.8791070  70.5391610  34.8227120  53.8858500  69.6310760
  35.2595810  53.5288930  71.0359270  39.3549860  68.6447930  85.5208050
  39.2808560  69.5483070  85.8280420  38.4528700  68.3259830  85.4930120
  39.9035190  67.8106440  73.1434410  40.7985980  68.1491410  73.1653170
  39.9352820  67.0885850  72.5158690  33.5431350  63.1833490  71.3721410
  33.9806220  63.7263160  72.0278990  34.0279080  62.3580440  71.3817750
  30.7577150  65.9722520  78.8241670  31.0880160  65.1043580  78.5920310
  31.1868150  66.1781040  79.6546630  35.3539070  64.3031530  76.4843640
  35.0534610  64.1796500  77.3847550  35.2476560  63.4440120  76.0759370
  31.2467360  66.8393110  81.5623300  30.8098350  67.0193910  82.3947450
  31.8145040  67.5967730  81.4205020  46.8829540  66.3410110  85.8500610
  46.2831530  66.4002670  85.1064530  47.0123440  65.4015090  85.9797460
  48.1230990  64.0827930  71.1870320  47.2923950  64.1504580  71.6577550
  48.3002820  64.9732050  70.8837180  47.5787450  60.8275410  73.6904520
  48.3406360  61.3972060  73.7964210  47.5941820  60.2602610  74.4612830
  31.0791790  59.3513340  77.9212180  30.4240630  59.0824980  77.2771880
  31.9169740  59.2417820  77.4714160  48.5847420  61.6825510  78.5346450
  48.9556250  60.8992830  78.1282420  49.2249350  62.3714610  78.3563750
  45.5681180  63.0662090  83.9476770  44.7541020  63.4959250  84.2102560
  45.9755380  63.6780500  83.3345820  47.6306620  61.1209780  70.8477040
  47.9055460  62.0288660  70.7196260  47.4417360  61.0572310  71.7839030
  44.0282230  54.1454630  72.1430670  44.4467110  53.9585610  71.3027330
  43.7218290  53.2933680  72.4533600  47.5271960  59.0578770  75.8406470
  47.1515560  58.2906700  75.4087760  46.7975080  59.4401470  76.3281400
  32.1167720  59.7365910  82.4615520  32.4840760  59.6493310  83.3411540
  31.5478540  58.9732460  82.3622380  46.9171580  58.2050290  85.4745990
  46.6857670  57.9763040  84.5743940  47.1776130  59.1249840  85.4290880
  31.6683720  56.6475000  86.3673940  30.7739770  56.6141760  86.7067650
  32.2081270  56.8461790  87.1325190  45.3559650  53.4306720  88.2525690
  46.2329830  53.4390120  88.6359690  45.3680490  52.6937560  87.6418040
  46.8022920  57.2836260  79.1413710  47.3260400  56.7898910  78.5103880
  47.3882340  57.4186620  79.8861280  46.9812640  57.3676130  82.6633260
  46.0315350  57.3339670  82.7778250  47.1625650  58.2776240  82.4283030
  32.8357080  55.6177810  71.7731890  33.5448780  55.1961030  71.2879170
  32.1197020  55.6853040  71.1415240  46.2922890  56.5409610  75.0806120
  46.7882010  56.3080480  75.8655000  46.0938960  55.7021450  74.6643760
  47.7210050  55.1770560  77.6143800  47.6109330  55.0226600  78.5526070
  48.4817640  54.6491500  77.3719210  46.0675770  51.1164690  84.0726800
  46.7047990  51.7298830  84.4385990  46.2150660  51.1525350  83.1276030
  48.6100320  53.0078480  70.8549940  49.5349630  52.8759660  70.6468230
  48.5876110  53.0871300  71.8086390  48.6838810  53.7789140  73.4806650
  47.8890310  53.7134260  74.0099560  48.8882090  54.7139780  73.4692000
  45.6257230  67.8180690  77.4745040  46.2216300  67.4965260  76.7979460
  45.8835380  67.3452510  78.2658310  31.9255430  51.0779000  83.4582480
  31.5770250  51.5342820  84.2240660  31.5943130  50.1836130  83.5404910
  33.5319800  64.2498600  87.6235670  33.4889430  63.8791510  88.5050130
  33.6630810  65.1876170  87.7637490  37.2325830  65.8058190  83.2245390
  36.9917190  66.0732750  82.3375910  38.1728470  65.9763920  83.2796250
  39.4380250  52.2690880  86.9801900  39.3769140  52.8612710  87.7297310
  40.3780630  52.1616840  86.8352160  42.0754810  51.9260940  86.6194190
  42.6895220  52.2440230  85.9575270  42.6204370  51.4409530  87.2390050
  48.4929990  67.8252570  84.0256030  47.9988270  68.2221440  83.3083160
  47.8843280  67.2001780  84.4193310  32.5976070  50.6055200  86.7333250
  33.1459060  50.4243250  85.9699360  32.6631380  49.8149310  87.2689560
  33.3707830  67.1960850  84.7433450  32.7768150  67.0645550  85.4823490
  33.3631670  66.3598990  84.2775550  42.8162850  50.4893080  82.9463480
  41.9422690  50.8228190  82.7436410  42.7073600  50.0166260  83.7715350
  43.7234830  52.6963950  84.3305200  43.3948190  51.8815710  83.9506930
  44.6717130  52.6533760  84.2070890  46.1769440  68.4675990  81.3042770
  45.7172410  69.2191800  80.9300790  45.5481900  67.7482460  81.2457570
  33.0020060  64.5619230  83.6941490  32.2754120  63.9424520  83.6267440
  33.0629210  64.9559840  82.8239570  36.6065160  66.7764230  80.4790900
  37.1230180  66.1651590  79.9539160  37.2562540  67.2793010  80.9701910
  39.3460660  67.6672720  81.3059880  39.6338470  67.4127020  80.4292890
  39.8583880  67.1150080  81.8965450  40.5637670  51.4062920  81.8856390
  39.7809460  51.8808420  82.1653150  40.2700600  50.5017750  81.7769570
  45.1158740  52.1086020  79.9305480  45.5566830  52.0531120  79.0827080
  44.8466330  53.0244030  80.0015660  46.9797310  51.7401260  77.9414300
  46.9185710  50.7962480  77.7945320  47.7589340  51.8481350  78.4867760
  31.2850060  67.8793620  76.9038250  31.1172100  67.2464300  77.6020140
  30.4184570  68.0853020  76.5532440  38.4491890  53.8249670  77.3972420
  37.6366400  53.4506560  77.0568300  38.9533530  53.0694750  77.6993610
  42.9516870  50.4892120  78.6355490  43.5546240  51.0612330  79.1104010
  42.2109860  51.0531560  78.4129390  46.0951470  50.8913680  73.9095770
  46.2902100  51.7897130  74.1763200  45.3081340  50.6600760  74.4028720
  32.8912760  66.5726850  74.3488390  32.3660380  66.9534880  73.6450350
  32.8157340  67.1977620  75.0698100  39.4133020  68.5888820  88.6728080
  40.3400330  68.3533090  88.7164040  39.3983450  69.4160820  88.1914110
  47.6478080  68.1314390  75.6702330  47.8230270  67.4452130  75.0263250
  46.9499650  68.6561440  75.2779000  36.5996630  51.2533570  88.4369960
  36.3180900  51.7567170  87.6730780  36.9816330  50.4555320  88.0712090
  35.4905730  68.5209230  73.2237640  36.2224550  68.2368510  72.6761530
  35.7499400  68.2822510  74.1137020  34.6520520  64.6373960  73.2283970
  34.0229400  65.1059060  73.7769800  34.7668350  63.7923180  73.6630160
  43.2012090  50.6687150  89.0150430  43.0877540  50.9881760  89.9101950
  44.0181830  51.0699660  88.7187710  45.9810580  67.8158680  88.4969120
  46.7735900  67.3207910  88.2895080  46.2743730  68.4948820  89.1044730
  44.2595710  64.8718830  60.0393570  43.7977240  64.1006070  60.3680740
  45.0721260  64.8984900  60.5446020  34.2355370  64.8118540  62.3328220
  34.5383410  63.9216280  62.1538440  34.9798960  65.3688760  62.1050470
  40.4859020  67.1576840  59.6597560  39.8670460  67.6134340  59.0892000
  41.3410800  67.3128300  59.2587260  39.6797270  63.1415830  61.2664600
  39.6105550  62.2005770  61.1053730  40.4417130  63.2317240  61.8387170
  30.7205570  62.7272610  54.4269100  30.3433550  63.2159710  53.6954000
  30.9778640  63.3997890  55.0575630  46.3450820  65.0012160  63.4616890
  45.6614340  65.6711270  63.4533560  46.8845110  65.1992810  62.6961750
  43.8809560  66.8456290  62.1762070  43.8936720  66.4418580  61.3084330
  43.3284780  67.6203580  62.0723500  36.7913600  63.4070130  61.5673670
  36.4941890  62.8015600  60.8881450  37.7413420  63.4447440  61.4563030
  44.8799210  66.9802000  65.2296770  44.4029770  67.7874190  65.0369380
  44.1961000  66.3280330  65.3822980  36.5083600  65.9586840  69.0023990
  36.4799030  66.3629790  68.1352420  36.3448570  65.0297200  68.8395590
  48.4598420  66.7413940  70.2988160  48.9358140  67.2196830  70.9777240
  49.0805580  66.6731430  69.5733660  30.6621900  61.7862690  62.7109750
  30.7402320  61.9211460  61.7665470  31.2763580  61.0778580  62.9037870
  31.9069530  63.4862880  59.1215930  31.4997610  63.6277470  58.2669530
  32.7982540  63.2023040  58.9187140  47.8631670  63.9326790  67.4588170
  47.9894730  63.6938670  66.5405350  47.9053050  63.1011330  67.9310250
  41.7248410  67.6354790  66.0282980  42.2393080  67.5462800  66.8305410
  40.8817490  67.9814490  66.3210890  43.7002810  67.9210130  55.4566980
  43.5403950  67.6313070  56.3548810  43.5349520  67.1450260  54.9212210
  36.1791190  67.7008660  57.2338600  36.0033670  66.7844200  57.0206400
  35.3246930  68.0595950  57.4736400  43.4028940  65.4297690  54.0164980
  42.7094100  65.4274980  53.3567260  44.1451800  65.0057010  53.5859150
  42.9678870  67.0560400  58.0913470  43.4235820  66.2749780  58.4052090
  43.3071390  67.7667220  58.6354650  30.3411440  56.2564020  52.0772880
  30.2586110  57.1994780  52.2187870  29.9894500  56.1138930  51.1985230
  37.2151220  58.3016270  53.5333290  36.6468120  57.8534520  52.9069200
  37.9240220  58.6609050  52.9998440  34.7598700  62.2974460  55.8059700
  33.9860960  61.7572080  55.6458420  35.4893330  61.7781070  55.4677460
  34.8036100  61.9654840  59.4438510  35.3214770  61.1623100  59.3895400
  34.3520120  61.9033980  60.2855340  39.6905600  63.2321120  54.7165810
  40.0321300  63.9763350  54.2209130  38.8618310  63.5452240  55.0790640
  30.7988690  58.9307470  52.9798810  31.6683540  59.2132270  53.2634730
  30.3079010  59.7443340  52.8647620  40.2656110  65.8287020  64.3299390
  40.9098330  66.0346400  65.0072810  40.6285550  65.0675420  63.8770240
  41.5388190  63.8319370  63.0476840  42.1810420  63.1312530  63.1609010
  42.0637540  64.6117810  62.8673730  45.3843910  64.1167990  52.7715980
  45.1581490  63.3998430  53.3640620  44.9940110  63.8680430  51.9337730
  43.3125810  64.6314270  66.2512900  43.6482050  65.2180960  66.9290820
  42.3926150  64.5006980  66.4810690  31.1659940  68.1434850  53.5460440
  31.5257580  68.7424190  52.8917710  31.0252280  68.6894740  54.3195470
  31.1501800  66.4089710  68.0202840  31.2592920  65.4684450  67.8798230
  30.4982360  66.6744460  67.3716570  39.1414390  64.6805600  69.4200960
  38.8211260  63.9614840  69.9646650  38.4672750  65.3560670  69.4937020
  37.1828560  65.5266050  54.3634110  37.1738660  66.2595740  53.7478620
  36.2626920  65.2797630  54.4561070  32.7835200  60.7480940  55.1080870
  32.1763150  61.4879840  55.1176170  33.2584550  60.8380300  54.2819070
  40.1688160  65.5894290  53.0259300  40.2700140  65.3858280  52.0961280
  39.2689900  65.3352570  53.2307080  38.8106270  68.1080610  57.7206970
  39.0647770  68.0702000  56.7986340  37.8618750  67.9813940  57.7135220
  34.7940490  60.7092090  52.8569440  35.5603760  60.5973450  53.4194870
  34.8715180  60.0130060  52.2046210  46.8184430  66.1981340  60.9719740
  46.9431850  67.0212510  61.4443550  47.6849990  65.9872070  60.6243890
  34.2901960  68.2912550  60.6436870  35.0264440  67.7428010  60.9145440
  34.6742880  69.1568560  60.5042860  31.1747440  64.3586120  56.5178380
  30.2487220  64.6007260  56.5083790  31.6403870  65.1860380  56.3963130
  33.2960240  67.4758620  69.8322450  34.0972970  67.7970670  70.2457850
  32.7812060  67.1154200  70.5542360  37.4004270  67.4642860  52.4662440
  38.1932880  67.7531690  52.0144230  36.8808620  67.0335030  51.7874920
  42.1324870  63.5838490  69.7797860  41.5263030  63.6070090  69.0393610
  41.8278980  62.8521530  70.3165110  43.5625240  67.3118780  68.3907270
  44.5146990  67.2276800  68.3407510  43.4153460  67.9760490  69.0641060
  46.4534440  66.6912990  53.8899180  46.1675950  66.2778130  53.0753360
  46.2553990  67.6200700  53.7699700  37.9181670  62.6846270  52.3304790
  37.8132310  62.0698620  53.0566170  37.7505890  62.1612160  51.5467800
  45.2119340  63.1008400  68.8669040  45.9528810  63.4384160  68.3636500
  44.4492020  63.2700460  68.3138810  36.8259520  60.7057220  54.8312080
  37.2475940  60.5397090  55.6743470  36.9510360  59.8957450  54.3367220
  39.3387160  59.7294830  52.0789180  39.8592820  59.0143850  51.7130330
  39.9855560  60.3680700  52.3789690  43.8865000  61.1523230  67.4024250
  44.3006020  61.3068310  68.2514670  42.9516000  61.2778450  67.5650030
  44.3587170  58.4919390  69.4063400  44.9407940  57.7371710  69.3183880
  44.5348940  59.0226830  68.6294880  35.7218420  56.7790450  51.7770240
  35.5207480  55.9157810  52.1383580  35.5510470  56.6923810  50.8391840
  36.4987650  67.4096720  66.4877910  35.9608740  68.1342780  66.1686610
  36.7521610  66.9327060  65.6975250  39.3549860  68.6447930  66.7464560
  39.2808560  69.5483070  67.0536930  38.4528700  68.3259830  66.7186630
  39.9035190  67.8106440  54.3690920  40.7985980  68.1491410  54.3909680
  39.9352820  67.0885850  53.7415200  33.5431350  63.1833490  52.5977920
  33.9806220  63.7263160  53.2535500  34.0279080  62.3580440  52.6074260
  30.7577150  65.9722520  60.0498180  31.0880160  65.1043580  59.8176820
  31.1868150  66.1781040  60.8803140  35.3539070  64.3031530  57.7100150
  35.0534610  64.1796500  58.6104060  35.2476560  63.4440120  57.3015880
  31.2467360  66.8393110  62.7879810  30.8098350  67.0193910  63.6203960
  31.8145040  67.5967730  62.6461530  46.8829540  66.3410110  67.0757120
  46.2831530  66.4002670  66.3321040  47.0123440  65.4015090  67.2053970
  45.5681180  63.0662090  65.1733280  44.7541020  63.4959250  65.4359070
  45.9755380  63.6780500  64.5602330  45.3559650  53.4306720  69.4782200
  46.2329830  53.4390120  69.8616200  45.3680490  52.6937560  68.8674550
  45.6257230  67.8180690  58.7001550  46.2216300  67.4965260  58.0235970
  45.8835380  67.3452510  59.4914820  33.5319800  64.2498600  68.8492180
  33.4889430  63.8791510  69.7306640  33.6630810  65.1876170  68.9894000
  48.4929990  67.8252570  65.2512540  47.9988270  68.2221440  64.5339670
  47.8843280  67.2001780  65.6449820  33.3707830  67.1960850  65.9689960
  32.7768150  67.0645550  66.7080000  33.3631670  66.3598990  65.5032060
  46.1769440  68.4675990  62.5299280  45.7172410  69.2191800  62.1557300
  45.5481900  67.7482460  62.4714080  33.0020060  64.5619230  64.9198000
  32.2754120  63.9424520  64.8523950  33.0629210  64.9559840  64.0496080
  36.6065160  66.7764230  61.7047410  37.1230180  66.1651590  61.1795670
  37.2562540  67.2793010  62.1958420  39.3460660  67.6672720  62.5316390
  39.6338470  67.4127020  61.6549400  39.8583880  67.1150080  63.1221960
  31.2850060  67.8793620  58.1294760  31.1172100  67.2464300  58.8276650
  30.4184570  68.0853020  57.7788950  32.8912760  66.5726850  55.5744900
  32.3660380  66.9534880  54.8706860  32.8157340  67.1977620  56.2954610
  39.4133020  68.5888820  69.8984590  40.3400330  68.3533090  69.9420550
  39.3983450  69.4160820  69.4170620  35.4905730  68.5209230  54.4494150
  36.2224550  68.2368510  53.9018040  35.7499400  68.2822510  55.3393530
  34.6520520  64.6373960  54.4540480  34.0229400  65.1059060  55.0026310
  34.7668350  63.7923180  54.8886670  45.9810580  67.8158680  69.7225630
  46.7735900  67.3207910  69.5151590  46.2743730  68.4948820  70.3301240
  42.1070240  58.6879620  40.6041680  42.0264290  57.7734230  40.3333390
  41.6934660  59.1846690  39.8981390  40.2388280  60.4658640  42.4850950
  39.4630380  59.9859080  42.7749520  40.8901210  59.7864290  42.3107110
  34.2554110  60.7778450  43.3626710  33.4238990  60.5227160  43.7623220
  34.8635090  60.8489220  44.0984630  44.2595710  64.8718830  41.2650080
  43.7977240  64.1006070  41.5937250  45.0721260  64.8984900  41.7702530
  34.2355370  64.8118540  43.5584730  34.5383410  63.9216280  43.3794950
  34.9798960  65.3688760  43.3306980  32.6646060  55.7380340  37.1469100
  31.7762760  56.0796310  37.0448980  32.9487250  55.5380660  36.2549930
  30.6279070  58.3385990  43.0308800  31.1995180  57.5708190  43.0312440
  30.6280610  58.6374750  42.1215410  40.4859020  67.1576840  40.8854070
  39.8670460  67.6134340  40.3148510  41.3410800  67.3128300  40.4843770
  39.6797270  63.1415830  42.4921110  39.6105550  62.2005770  42.3310240
  40.4417130  63.2317240  43.0643680  31.8703940  53.7470350  44.8177730
  31.6906780  52.8496100  45.0980490  31.4684020  54.2942220  45.4924680
  32.4890610  56.2430850  43.4260070  33.1700720  56.5069220  44.0447470
  32.1738660  55.4031720  43.7598080  36.6815180  57.2898210  42.5132660
  37.1893400  57.7879180  43.1537680  37.2128420  56.5133410  42.3372020
  41.3522370  62.0416080  38.2785980  40.7339640  62.5065530  37.7148700
  41.8645620  62.7343560  38.6955490  36.2154130  61.5691950  44.9569580
  35.8823510  62.1960870  45.5990650  36.3920810  62.0953830  44.1771250
  35.4273230  63.5372750  46.7718760  36.0447230  64.2123830  46.4903210
  34.5666350  63.9460730  46.6806260  30.7205570  62.7272610  35.6525610
  30.3433550  63.2159710  34.9210510  30.9778640  63.3997890  36.2832140
  46.3450820  65.0012160  44.6873400  45.6614340  65.6711270  44.6790070
  46.8845110  65.1992810  43.9218260  43.8809560  66.8456290  43.4018580
  43.8936720  66.4418580  42.5340840  43.3284780  67.6203580  43.2980010
  45.1754980  63.5672510  38.4908750  45.0651310  62.6246840  38.6158170
  45.1723230  63.9288150  39.3771510  43.2795000  61.7486130  44.7301190
  43.6963790  61.5346240  43.8954650  44.0034820  62.0058920  45.3009810
  40.7175260  59.1937830  37.8471240  39.7904540  59.1275210  38.0759710
  40.8700080  60.1317960  37.7326480  44.7472550  60.7558130  38.3506490
  44.1284970  60.4177680  37.7032790  44.7297000  60.1117890  39.0585680
  36.3231900  59.7202570  40.6290970  35.9188900  59.0079820  40.1336870
  36.4095020  59.3755810  41.5179010  36.7913600  63.4070130  42.7930180
  36.4941890  62.8015600  42.1137960  37.7413420  63.4447440  42.6819540
  35.0360520  56.4945780  44.4090010  35.5875110  56.6041120  43.6343260
  35.5504030  56.8683380  45.1245240  44.8799210  66.9802000  46.4553280
  44.4029770  67.7874190  46.2625890  44.1961000  66.3280330  46.6079490
  35.8832030  63.1451820  49.4437980  34.9860560  63.3691790  49.6911380
  35.9084900  63.2686760  48.4949380  42.9237250  59.9944940  35.3579240
  43.3630530  59.1567370  35.2117060  43.6365670  60.6274340  35.4443380
  34.7103250  60.0165140  48.0195350  34.5711020  60.8887940  48.3882750
  33.8284610  59.6737950  47.8743290  41.0332630  64.9341010  39.3260480
  41.4728540  65.6765340  38.9115870  40.9719520  65.1767580  40.2499440
  36.5083600  65.9586840  50.2280500  36.4799030  66.3629790  49.3608930
  36.3448570  65.0297200  50.0652100  33.0236530  58.6147550  38.1297620
  32.9034130  59.3409640  37.5178890  32.7137420  57.8450460  37.6525530
  48.4598420  66.7413940  51.5244670  48.9358140  67.2196830  52.2033750
  49.0805580  66.6731430  50.7990170  30.6621900  61.7862690  43.9366260
  30.7402320  61.9211460  42.9921980  31.2763580  61.0778580  44.1294380
  31.9069530  63.4862880  40.3472440  31.4997610  63.6277470  39.4926040
  32.7982540  63.2023040  40.1443650  47.8631670  63.9326790  48.6844680
  47.9894730  63.6938670  47.7661860  47.9053050  63.1011330  49.1566760
  41.7248410  67.6354790  47.2539490  42.2393080  67.5462800  48.0561920
  40.8817490  67.9814490  47.5467400  43.7002810  67.9210130  36.6823490
  43.5403950  67.6313070  37.5805320  43.5349520  67.1450260  36.1468720
  36.1791190  67.7008660  38.4595110  36.0033670  66.7844200  38.2462910
  35.3246930  68.0595950  38.6992910  43.4028940  65.4297690  35.2421490
  42.7094100  65.4274980  34.5823770  44.1451800  65.0057010  34.8115660
  42.9678870  67.0560400  39.3169980  43.4235820  66.2749780  39.6308600
  43.3071390  67.7667220  39.8611160  30.7181420  62.8276860  46.4760720
  30.8812460  62.3582220  45.6580090  31.1833870  62.3200420  47.1409560
  35.2814410  57.0816190  39.2402540  35.0555330  56.8653360  40.1449160
  34.5006940  57.5144650  38.8948510  37.7213620  57.9801770  49.9062810
  37.6257220  57.0396500  49.7563210  38.5645600  58.2016840  49.5110880
  30.1541210  52.3143900  42.0926670  29.8654260  52.8846760  42.8051650
  30.8986970  51.8348350  42.4557900  30.3411440  56.2564020  33.3029390
  30.2586110  57.1994780  33.4444380  29.9894500  56.1138930  32.4241740
  41.7032180  58.3148850  43.9647250  40.9713300  58.8235660  44.3137350
  41.3056520  57.4978830  43.6636030  33.9911950  54.8729540  41.3293950
  33.6512000  55.3504770  42.0861000  33.2289270  54.4194660  40.9695050
  37.2151220  58.3016270  34.7589800  36.6468120  57.8534520  34.1325710
  37.9240220  58.6609050  34.2254950  32.2920400  62.2028290  48.6356530
  31.9075190  61.5621960  49.2339490  32.6032590  62.9064410  49.2051260
  38.4417540  59.0504830  44.1165150  38.8087670  58.5763400  44.8626490
  38.2522600  59.9246400  44.4573490  31.3058030  53.7948520  40.2458620
  31.0204950  53.4304190  41.0837240  31.2436890  53.0628980  39.6321760
  36.2316910  58.0913470  46.4349360  35.9273980  58.9705450  46.6599720
  37.1863370  58.1513260  46.4706800  34.7598700  62.2974460  37.0316210
  33.9860960  61.7572080  36.8714930  35.4893330  61.7781070  36.6933970
  45.5186680  61.2939820  42.8242600  46.2385800  61.7895110  42.4338710
  45.3168500  60.6157710  42.1796470  40.9005480  61.3648880  48.7111600
  40.8342790  60.4444550  48.4569190  40.2710620  61.4624320  49.4256240
  43.6945010  57.0597430  35.2634150  44.5824630  57.3714660  35.0885490
  43.6650100  56.1869680  34.8714730  34.8036100  61.9654840  40.6695020
  35.3214770  61.1623100  40.6151910  34.3520120  61.9033980  41.5111850
  39.6905600  63.2321120  35.9422320  40.0321300  63.9763350  35.4465640
  38.8618310  63.5452240  36.3047150  32.2880640  58.9316210  47.5820720
  31.9295580  59.5970060  48.1694060  31.9935200  58.0999760  47.9533340
  35.4893760  59.3900450  50.4660270  35.1893900  59.5357630  49.5688090
  36.2605000  58.8305740  50.3733660  40.8322210  64.1869450  48.4615400
  40.8466750  63.2550410  48.2434310  40.1247310  64.2729210  49.1005170
  45.9659280  58.3709270  34.7314010  45.8823000  58.8023490  33.8810450
  46.6853470  58.8307620  35.1640830  46.9946530  65.2251530  37.4596140
  46.3522690  64.5707150  37.7339860  46.6077190  65.6306620  36.6836810
  42.5733010  62.5536960  41.3067830  42.9256830  61.9565090  40.6469200
  41.6895340  62.2281190  41.4776080  38.6596290  63.3134650  38.7138240
  39.3467420  63.8603860  39.0945830  37.8728710  63.8575380  38.7487850
  30.7988690  58.9307470  34.2055320  31.6683540  59.2132270  34.4891240
  30.3079010  59.7443340  34.0904130  37.9623500  60.3180680  38.3263600
  38.4186280  61.1285930  38.5523790  37.6111710  60.0003820  39.1582090
  40.2656110  65.8287020  45.5555900  40.9098330  66.0346400  46.2329320
  40.6285550  65.0675420  45.1026750  41.5388190  63.8319370  44.2733350
  42.1810420  63.1312530  44.3865520  42.0637540  64.6117810  44.0930240
  45.3843910  64.1167990  33.9972490  45.1581490  63.3998430  34.5897130
  44.9940110  63.8680430  33.1594240  43.3125810  64.6314270  47.4769410
  43.6482050  65.2180960  48.1547330  42.3926150  64.5006980  47.7067200
  31.1659940  68.1434850  34.7716950  31.5257580  68.7424190  34.1174220
  31.0252280  68.6894740  35.5451980  44.9660160  62.0339930  35.6586650
  44.6781860  62.4952620  36.4464530  45.7612330  61.5737700  35.9270870
  31.1501800  66.4089710  49.2459350  31.2592920  65.4684450  49.1054740
  30.4982360  66.6744460  48.5973080  39.1414390  64.6805600  50.6457470
  38.8211260  63.9614840  51.1903160  38.4672750  65.3560670  50.7193530
  37.1828560  65.5266050  35.5890620  37.1738660  66.2595740  34.9735130
  36.2626920  65.2797630  35.6817580  32.7835200  60.7480940  36.3337380
  32.1763150  61.4879840  36.3432680  33.2584550  60.8380300  35.5075580
  40.1688160  65.5894290  34.2515810  40.2700140  65.3858280  33.3217790
  39.2689900  65.3352570  34.4563590  39.3169980  57.5671350  46.2332240
  39.8155230  58.0417170  46.8984090  39.4592930  56.6434870  46.4402270
  38.8106270  68.1080610  38.9463480  39.0647770  68.0702000  38.0242850
  37.8618750  67.9813940  38.9391730  34.7940490  60.7092090  34.0825950
  35.5603760  60.5973450  34.6451380  34.8715180  60.0130060  33.4302720
  33.4887250  58.1417160  34.7658840  33.5690840  57.1944670  34.8776240
  34.3807000  58.4724040  34.8719500  46.8184430  66.1981340  42.1976250
  46.9431850  67.0212510  42.6700060  47.6849990  65.9872070  41.8500400
  34.2901960  68.2912550  41.8693380  35.0264440  67.7428010  42.1401950
  34.6742880  69.1568560  41.7299370  31.1747440  64.3586120  37.7434890
  30.2487220  64.6007260  37.7340300  31.6403870  65.1860380  37.6219640
  33.2960240  67.4758620  51.0578960  34.0972970  67.7970670  51.4714360
  32.7812060  67.1154200  51.7798870  37.4004270  67.4642860  33.6918950
  38.1932880  67.7531690  33.2400740  36.8808620  67.0335030  33.0131430
  42.1324870  63.5838490  51.0054370  41.5263030  63.6070090  50.2650120
  41.8278980  62.8521530  51.5421620  43.5625240  67.3118780  49.6163780
  44.5146990  67.2276800  49.5664020  43.4153460  67.9760490  50.2897570
  46.4534440  66.6912990  35.1155690  46.1675950  66.2778130  34.3009870
  46.2553990  67.6200700  34.9956210  31.0158050  59.9632080  50.0015010
  31.5197070  59.3839360  50.5731240  30.2765470  60.2472310  50.5391380
  37.9181670  62.6846270  33.5561300  37.8132310  62.0698620  34.2822680
  37.7505890  62.1612160  32.7724310  38.0695990  61.3703070  49.5350530
  37.3041660  61.9388070  49.4505200  38.2511950  61.0779280  48.6418760
  41.1584400  61.7466300  34.1603290  40.6094500  62.1935600  34.8046030
  41.7803660  61.2415550  34.6840960  45.2119340  63.1008400  50.0925550
  45.9528810  63.4384160  49.5893010  44.4492020  63.2700460  49.5395320
  33.0481130  58.1061670  50.8965080  33.0886470  57.8075540  51.8050310
  33.9026630  58.5069280  50.7372600  36.8259520  60.7057220  36.0568590
  37.2475940  60.5397090  36.8999980  36.9510360  59.8957450  35.5623730
  34.9886940  56.6853770  48.8639570  34.4583400  56.1944720  48.2362910
  35.6575010  57.1137970  48.3297500  39.3387160  59.7294830  33.3045690
  39.8592820  59.0143850  32.9386840  39.9855560  60.3680700  33.6046200
  38.6480230  61.1043710  46.5976690  39.0668340  61.9476440  46.4252930
  37.7288860  61.2415750  46.3683470  35.7218420  56.7790450  33.0026750
  35.5207480  55.9157810  33.3640090  35.5510470  56.6923810  32.0648350
  36.4987650  67.4096720  47.7134420  35.9608740  68.1342780  47.3943120
  36.7521610  66.9327060  46.9231760  39.3549860  68.6447930  47.9721070
  39.2808560  69.5483070  48.2793440  38.4528700  68.3259830  47.9443140
  39.9035190  67.8106440  35.5947430  40.7985980  68.1491410  35.6166190
  39.9352820  67.0885850  34.9671710  33.5431350  63.1833490  33.8234430
  33.9806220  63.7263160  34.4792010  34.0279080  62.3580440  33.8330770
  30.7577150  65.9722520  41.2754690  31.0880160  65.1043580  41.0433330
  31.1868150  66.1781040  42.1059650  35.3539070  64.3031530  38.9356660
  35.0534610  64.1796500  39.8360570  35.2476560  63.4440120  38.5272390
  31.2467360  66.8393110  44.0136320  30.8098350  67.0193910  44.8460470
  31.8145040  67.5967730  43.8718040  46.8829540  66.3410110  48.3013630
  46.2831530  66.4002670  47.5577550  47.0123440  65.4015090  48.4310480
  48.1230990  64.0827930  33.6383340  47.2923950  64.1504580  34.1090570
  48.3002820  64.9732050  33.3350200  47.5787450  60.8275410  36.1417540
  48.3406360  61.3972060  36.2477230  47.5941820  60.2602610  36.9125850
  31.0791790  59.3513340  40.3725200  30.4240630  59.0824980  39.7284900
  31.9169740  59.2417820  39.9227180  48.5847420  61.6825510  40.9859470
  48.9556250  60.8992830  40.5795440  49.2249350  62.3714610  40.8076770
  45.5681180  63.0662090  46.3989790  44.7541020  63.4959250  46.6615580
  45.9755380  63.6780500  45.7858840  47.6306620  61.1209780  33.2990060
  47.9055460  62.0288660  33.1709280  47.4417360  61.0572310  34.2352050
  47.5271960  59.0578770  38.2919490  47.1515560  58.2906700  37.8600780
  46.7975080  59.4401470  38.7794420  32.1167720  59.7365910  44.9128540
  32.4840760  59.6493310  45.7924560  31.5478540  58.9732460  44.8135400
  31.6683720  56.6475000  48.8186960  30.7739770  56.6141760  49.1580670
  32.2081270  56.8461790  49.5838210  30.2929870  56.5612270  36.3150530
  29.3893950  56.8242470  36.1402190  30.7770490  56.8323440  35.5350490
  32.8357080  55.6177810  34.2244910  33.5448780  55.1961030  33.7392190
  32.1197020  55.6853040  33.5928260  46.2922890  56.5409610  37.5319140
  46.7882010  56.3080480  38.3168020  46.0938960  55.7021450  37.1156780
  32.1723430  50.9223330  43.1670180  32.8199620  50.3720710  42.7265340
  32.5925270  51.1766480  43.9885990  48.6100320  53.0078480  33.3062960
  49.5349630  52.8759660  33.0981250  48.5876110  53.0871300  34.2599410
  45.6257230  67.8180690  39.9258060  46.2216300  67.4965260  39.2492480
  45.8835380  67.3452510  40.7171330  33.5319800  64.2498600  50.0748690
  33.4889430  63.8791510  50.9563150  33.6630810  65.1876170  50.2150510
  37.2325830  65.8058190  45.6758410  36.9917190  66.0732750  44.7888930
  38.1728470  65.9763920  45.7309270  48.4929990  67.8252570  46.4769050
  47.9988270  68.2221440  45.7596180  47.8843280  67.2001780  46.8706330
  33.3707830  67.1960850  47.1946470  32.7768150  67.0645550  47.9336510
  33.3631670  66.3598990  46.7288570  46.1769440  68.4675990  43.7555790
  45.7172410  69.2191800  43.3813810  45.5481900  67.7482460  43.6970590
  33.0020060  64.5619230  46.1454510  32.2754120  63.9424520  46.0780460
  33.0629210  64.9559840  45.2752590  36.6065160  66.7764230  42.9303920
  37.1230180  66.1651590  42.4052180  37.2562540  67.2793010  43.4214930
  39.3460660  67.6672720  43.7572900  39.6338470  67.4127020  42.8805910
  39.8583880  67.1150080  44.3478470  31.2850060  67.8793620  39.3551270
  31.1172100  67.2464300  40.0533160  30.4184570  68.0853020  39.0045460
  32.8912760  66.5726850  36.8001410  32.3660380  66.9534880  36.0963370
  32.8157340  67.1977620  37.5211120  39.4133020  68.5888820  51.1241100
  40.3400330  68.3533090  51.1677060  39.3983450  69.4160820  50.6427130
  47.6478080  68.1314390  38.1215350  47.8230270  67.4452130  37.4776270
  46.9499650  68.6561440  37.7292020  35.4905730  68.5209230  35.6750660
  36.2224550  68.2368510  35.1274550  35.7499400  68.2822510  36.5650040
  34.6520520  64.6373960  35.6796990  34.0229400  65.1059060  36.2282820
  34.7668350  63.7923180  36.1143180  45.9810580  67.8158680  50.9482140
  46.7735900  67.3207910  50.7408100  46.2743730  68.4948820  51.5557750
  42.1070240  58.6879620  21.8298190  42.0264290  57.7734230  21.5589900
  41.6934660  59.1846690  21.1237900  40.2388280  60.4658640  23.7107460
  39.4630380  59.9859080  24.0006030  40.8901210  59.7864290  23.5363620
  34.2554110  60.7778450  24.5883220  33.4238990  60.5227160  24.9879730
  34.8635090  60.8489220  25.3241140  44.2595710  64.8718830  22.4906590
  43.7977240  64.1006070  22.8193760  45.0721260  64.8984900  22.9959040
  34.2355370  64.8118540  24.7841240  34.5383410  63.9216280  24.6051460
  34.9798960  65.3688760  24.5563490  32.6646060  55.7380340  18.3725610
  31.7762760  56.0796310  18.2705490  32.9487250  55.5380660  17.4806440
  30.6279070  58.3385990  24.2565310  31.1995180  57.5708190  24.2568950
  30.6280610  58.6374750  23.3471920  40.4859020  67.1576840  22.1110580
  39.8670460  67.6134340  21.5405020  41.3410800  67.3128300  21.7100280
  39.6797270  63.1415830  23.7177620  39.6105550  62.2005770  23.5566750
  40.4417130  63.2317240  24.2900190  31.8703940  53.7470350  26.0434240
  31.6906780  52.8496100  26.3237000  31.4684020  54.2942220  26.7181190
  40.7102440  55.9486210  23.9446550  41.0867260  55.0758090  23.8320220
  40.6121950  56.2844910  23.0536990  34.8407450  54.3211840  19.4063990
  34.9474200  55.2215570  19.7132750  33.9299810  54.2729810  19.1158640
  44.4926560  53.4436650  20.8774890  45.3136180  52.9533220  20.9200370
  44.5260640  54.0334310  21.6306730  32.4890610  56.2430850  24.6516580
  33.1700720  56.5069220  25.2703980  32.1738660  55.4031720  24.9854590
  36.6815180  57.2898210  23.7389170  37.1893400  57.7879180  24.3794190
  37.2128420  56.5133410  23.5628530  48.7826110  55.4603400  27.4418520
  48.0778280  55.8485110  26.9233630  49.0484030  56.1553690  28.0439450
  41.3522370  62.0416080  19.5042490  40.7339640  62.5065530  18.9405210
  41.8645620  62.7343560  19.9212000  36.2154130  61.5691950  26.1826090
  35.8823510  62.1960870  26.8247160  36.3920810  62.0953830  25.4027760
  44.7288040  55.3837030  23.6502430  44.0243610  55.6721920  24.2305540
  45.0900200  56.1937140  23.2901990  35.4273230  63.5372750  27.9975270
  36.0447230  64.2123830  27.7159720  34.5666350  63.9460730  27.9062770
  30.7205570  62.7272610  16.8782120  30.3433550  63.2159710  16.1467020
  30.9778640  63.3997890  17.5088650  46.3450820  65.0012160  25.9129910
  45.6614340  65.6711270  25.9046580  46.8845110  65.1992810  25.1474770
  47.7974960  54.8291820  24.0411640  46.8499870  54.8630800  24.1727070
  48.1224950  55.6430770  24.4261000  38.3294500  51.1289000  22.3367630
  38.6369480  50.5735890  21.6203130  37.3995200  51.2633460  22.1540620
  43.8809560  66.8456290  24.6275090  43.8936720  66.4418580  23.7597350
  43.3284780  67.6203580  24.5236520  45.1754980  63.5672510  19.7165260
  45.0651310  62.6246840  19.8414680  45.1723230  63.9288150  20.6028020
  43.2795000  61.7486130  25.9557700  43.6963790  61.5346240  25.1211160
  44.0034820  62.0058920  26.5266320  40.7175260  59.1937830  19.0727750
  39.7904540  59.1275210  19.3016220  40.8700080  60.1317960  18.9582990
  40.7044340  55.4654830  16.0694910  39.7648010  55.6268790  16.1547370
  41.0227600  56.1840510  15.5230900  47.2257100  60.1473350  26.0473940
  46.3975730  60.2166440  25.5724070  47.8207580  60.7327660  25.5789770
  44.7472550  60.7558130  19.5763000  44.1284970  60.4177680  18.9289300
  44.7297000  60.1117890  20.2842190  44.1899110  56.9342670  26.9928810
  43.7770290  57.7596380  27.2468800  43.4575060  56.3487710  26.8005170
  36.3231900  59.7202570  21.8547480  35.9188900  59.0079820  21.3593380
  36.4095020  59.3755810  22.7435520  36.7913600  63.4070130  24.0186690
  36.4941890  62.8015600  23.3394470  37.7413420  63.4447440  23.9076050
  35.0360520  56.4945780  25.6346520  35.5875110  56.6041120  24.8599770
  35.5504030  56.8683380  26.3501750  44.8799210  66.9802000  27.6809790
  44.4029770  67.7874190  27.4882400  44.1961000  66.3280330  27.8336000
  35.8832030  63.1451820  30.6694490  34.9860560  63.3691790  30.9167890
  35.9084900  63.2686760  29.7205890  42.9237250  59.9944940  16.5835750
  43.3630530  59.1567370  16.4373570  43.6365670  60.6274340  16.6699890
  34.7103250  60.0165140  29.2451860  34.5711020  60.8887940  29.6139260
  33.8284610  59.6737950  29.0999800  41.0332630  64.9341010  20.5516990
  41.4728540  65.6765340  20.1372380  40.9719520  65.1767580  21.4755950
  36.5083600  65.9586840  31.4537010  36.4799030  66.3629790  30.5865440
  36.3448570  65.0297200  31.2908610  46.5054390  51.2487750  14.8976790
  46.1927050  51.3414580  15.7975860  47.2666860  51.8268780  14.8474220
  33.0236530  58.6147550  19.3554130  32.9034130  59.3409640  18.7435400
  32.7137420  57.8450460  18.8782040  48.4598420  66.7413940  32.7501180
  48.9358140  67.2196830  33.4290260  49.0805580  66.6731430  32.0246680
  30.6621900  61.7862690  25.1622770  30.7402320  61.9211460  24.2178490
  31.2763580  61.0778580  25.3550890  31.9069530  63.4862880  21.5728950
  31.4997610  63.6277470  20.7182550  32.7982540  63.2023040  21.3700160
  47.8631670  63.9326790  29.9101190  47.9894730  63.6938670  28.9918370
  47.9053050  63.1011330  30.3823270  41.7248410  67.6354790  28.4796000
  42.2393080  67.5462800  29.2818430  40.8817490  67.9814490  28.7723910
  43.7002810  67.9210130  17.9080000  43.5403950  67.6313070  18.8061830
  43.5349520  67.1450260  17.3725230  36.1791190  67.7008660  19.6851620
  36.0033670  66.7844200  19.4719420  35.3246930  68.0595950  19.9249420
  43.4028940  65.4297690  16.4678000  42.7094100  65.4274980  15.8080280
  44.1451800  65.0057010  16.0372170  42.9678870  67.0560400  20.5426490
  43.4235820  66.2749780  20.8565110  43.3071390  67.7667220  21.0867670
  47.7155680  55.9859250  30.8750930  47.0999950  56.4938920  30.3466390
  47.3952100  55.0857580  30.8176870  30.7181420  62.8276860  27.7017230
  30.8812460  62.3582220  26.8836600  31.1833870  62.3200420  28.3666070
  35.4900190  51.9582620  22.7377800  35.0468340  52.7392160  22.4062320
  36.0485180  52.2812510  23.4448740  44.7774510  56.0460090  29.4709780
  43.9268100  55.7465840  29.7918850  44.6176300  56.2902100  28.5593600
  41.8724220  57.5461840  31.5708570  42.1977630  56.7125590  31.2310800
  42.6604550  58.0690360  31.7186900  38.6059010  51.5793320  17.6183630
  37.9813190  51.5753190  18.3436940  38.5189130  50.7124280  17.2219600
  35.2814410  57.0816190  20.4659050  35.0555330  56.8653360  21.3705670
  34.5006940  57.5144650  20.1205020  42.5112170  57.0879560  19.0649700
  41.9121060  57.8115360  18.8813320  43.0591780  57.0256340  18.2826150
  37.7213620  57.9801770  31.1319320  37.6257220  57.0396500  30.9819720
  38.5645600  58.2016840  30.7367390  41.1177040  55.7243100  21.0952980
  41.5106610  56.0415300  20.2821670  41.4793890  54.8454980  21.2097500
  32.8524160  54.3915440  29.2853100  32.4587550  55.2390650  29.4925880
  32.1642560  53.7541810  29.4761740  30.1541210  52.3143900  23.3183180
  29.8654260  52.8846760  24.0308160  30.8986970  51.8348350  23.6814410
  30.3411440  56.2564020  14.5285900  30.2586110  57.1994780  14.6700890
  29.9894500  56.1138930  13.6498250  41.7032180  58.3148850  25.1903760
  40.9713300  58.8235660  25.5393860  41.3056520  57.4978830  24.8892540
  33.9911950  54.8729540  22.5550460  33.6512000  55.3504770  23.3117510
  33.2289270  54.4194660  22.1951560  38.2029720  55.9915130  16.5863010
  38.3242540  55.9501610  17.5348830  37.8178230  56.8539280  16.4309740
  42.1658090  53.7682530  24.6026700  42.1830830  54.2191180  25.4468550
  41.9173670  52.8688170  24.8160140  37.2151220  58.3016270  15.9846310
  36.6468120  57.8534520  15.3582220  37.9240220  58.6609050  15.4511460
  32.2920400  62.2028290  29.8613040  31.9075190  61.5621960  30.4596000
  32.6032590  62.9064410  30.4307770  38.4417540  59.0504830  25.3421660
  38.8087670  58.5763400  26.0883000  38.2522600  59.9246400  25.6830000
  31.3058030  53.7948520  21.4715130  31.0204950  53.4304190  22.3093750
  31.2436890  53.0628980  20.8578270  36.2316910  58.0913470  27.6605870
  35.9273980  58.9705450  27.8856230  37.1863370  58.1513260  27.6963310
  34.7598700  62.2974460  18.2572720  33.9860960  61.7572080  18.0971440
  35.4893330  61.7781070  17.9190480  45.5186680  61.2939820  24.0499110
  46.2385800  61.7895110  23.6595220  45.3168500  60.6157710  23.4052980
  40.9796620  52.6877780  18.1928500  40.1661230  52.1890950  18.1173810
  40.7858570  53.5276030  17.7764850  40.9005480  61.3648880  29.9368110
  40.8342790  60.4444550  29.6825700  40.2710620  61.4624320  30.6512750
  43.6945010  57.0597430  16.4890660  44.5824630  57.3714660  16.3142000
  43.6650100  56.1869680  16.0971240  34.8036100  61.9654840  21.8951530
  35.3214770  61.1623100  21.8408420  34.3520120  61.9033980  22.7368360
  39.6905600  63.2321120  17.1678830  40.0321300  63.9763350  16.6722150
  38.8618310  63.5452240  17.5303660  32.2880640  58.9316210  28.8077230
  31.9295580  59.5970060  29.3950570  31.9935200  58.0999760  29.1789850
  35.4893760  59.3900450  31.6916780  35.1893900  59.5357630  30.7944600
  36.2605000  58.8305740  31.5990170  40.8322210  64.1869450  29.6871910
  40.8466750  63.2550410  29.4690820  40.1247310  64.2729210  30.3261680
  45.9659280  58.3709270  15.9570520  45.8823000  58.8023490  15.1066960
  46.6853470  58.8307620  16.3897340  47.0433420  60.8276790  29.0340490
  46.3181610  61.4205570  28.8369880  47.5708880  60.8200330  28.2353860
  46.9946530  65.2251530  18.6852650  46.3522690  64.5707150  18.9596370
  46.6077190  65.6306620  17.9093320  42.5733010  62.5536960  22.5324340
  42.9256830  61.9565090  21.8725710  41.6895340  62.2281190  22.7032590
  38.6596290  63.3134650  19.9394750  39.3467420  63.8603860  20.3202340
  37.8728710  63.8575380  19.9744360  30.7988690  58.9307470  15.4311830
  31.6683540  59.2132270  15.7147750  30.3079010  59.7443340  15.3160640
  37.9623500  60.3180680  19.5520110  38.4186280  61.1285930  19.7780300
  37.6111710  60.0003820  20.3838600  40.2656110  65.8287020  26.7812410
  40.9098330  66.0346400  27.4585830  40.6285550  65.0675420  26.3283260
  33.8635280  50.6618330  20.0242630  33.7349910  50.6536230  20.9727550
  33.0397300  51.0001420  19.6733640  41.5388190  63.8319370  25.4989860
  42.1810420  63.1312530  25.6122030  42.0637540  64.6117810  25.3186750
  45.3843910  64.1167990  15.2229000  45.1581490  63.3998430  15.8153640
  44.9940110  63.8680430  14.3850750  43.3125810  64.6314270  28.7025920
  43.6482050  65.2180960  29.3803840  42.3926150  64.5006980  28.9323710
  31.1659940  68.1434850  15.9973460  31.5257580  68.7424190  15.3430730
  31.0252280  68.6894740  16.7708490  44.9660160  62.0339930  16.8843160
  44.6781860  62.4952620  17.6721040  45.7612330  61.5737700  17.1527380
  31.1501800  66.4089710  30.4715860  31.2592920  65.4684450  30.3311250
  30.4982360  66.6744460  29.8229590  39.1414390  64.6805600  31.8713980
  38.8211260  63.9614840  32.4159670  38.4672750  65.3560670  31.9450040
  37.1828560  65.5266050  16.8147130  37.1738660  66.2595740  16.1991640
  36.2626920  65.2797630  16.9074090  32.7835200  60.7480940  17.5593890
  32.1763150  61.4879840  17.5689190  33.2584550  60.8380300  16.7332090
  42.3567990  54.9131760  27.2350780  42.7248810  54.0926970  27.5630350
  41.4966190  54.9733650  27.6506430  45.7230020  53.8688700  18.0438340
  45.0943180  53.9734370  17.3296570  45.2281940  54.0885480  18.8332220
  40.1688160  65.5894290  15.4772320  40.2700140  65.3858280  14.5474300
  39.2689900  65.3352570  15.6820100  37.6914050  56.1474650  19.4596220
  36.9830200  56.6160990  19.9009830  37.9758530  55.4896660  20.0941410
  41.7229480  52.8725310  20.8992010  41.5997260  52.8911440  19.9501520
  42.6714040  52.9204250  21.0190410  38.8106270  68.1080610  20.1719990
  39.0647770  68.0702000  19.2499360  37.8618750  67.9813940  20.1648240
  35.8949070  54.4559730  16.8346930  36.7439600  54.8929880  16.7687120
  35.5280340  54.7679990  17.6618990  46.5236840  53.7839310  28.3017140
  46.0210440  54.5244710  28.6410950  47.3393500  54.1723310  27.9853930
  44.8158850  59.0272490  21.7478500  43.8748990  59.0422720  21.9226190
  45.1302920  58.2408450  22.1938800  34.7940490  60.7092090  15.3082460
  35.5603760  60.5973450  15.8707890  34.8715180  60.0130060  14.6559230
  33.4887250  58.1417160  15.9915350  33.5690840  57.1944670  16.1032750
  34.3807000  58.4724040  16.0976010  46.8184430  66.1981340  23.4232760
  46.9431850  67.0212510  23.8956570  47.6849990  65.9872070  23.0756910
  34.2901960  68.2912550  23.0949890  35.0264440  67.7428010  23.3658460
  34.6742880  69.1568560  22.9555880  31.1747440  64.3586120  18.9691400
  30.2487220  64.6007260  18.9596810  31.6403870  65.1860380  18.8476150
  33.2960240  67.4758620  32.2835470  34.0972970  67.7970670  32.6970870
  32.7812060  67.1154200  33.0055380  37.4004270  67.4642860  14.9175460
  38.1932880  67.7531690  14.4657250  36.8808620  67.0335030  14.2387940
  42.1324870  63.5838490  32.2310880  41.5263030  63.6070090  31.4906630
  41.8278980  62.8521530  32.7678130  43.5625240  67.3118780  30.8420290
  44.5146990  67.2276800  30.7920530  43.4153460  67.9760490  31.5154080
  46.4534440  66.6912990  16.3412200  46.1675950  66.2778130  15.5266380
  46.2553990  67.6200700  16.2212720  31.0158050  59.9632080  31.2271520
  31.5197070  59.3839360  31.7987750  30.2765470  60.2472310  31.7647890
  37.9181670  62.6846270  14.7817810  37.8132310  62.0698620  15.5079190
  37.7505890  62.1612160  13.9980820  38.0695990  61.3703070  30.7607040
  37.3041660  61.9388070  30.6761710  38.2511950  61.0779280  29.8675270
  41.1584400  61.7466300  15.3859800  40.6094500  62.1935600  16.0302540
  41.7803660  61.2415550  15.9097470  45.2119340  63.1008400  31.3182060
  45.9528810  63.4384160  30.8149520  44.4492020  63.2700460  30.7651830
  33.0481130  58.1061670  32.1221590  33.0886470  57.8075540  33.0306820
  33.9026630  58.5069280  31.9629110  36.8259520  60.7057220  17.2825100
  37.2475940  60.5397090  18.1256490  36.9510360  59.8957450  16.7880240
  34.9886940  56.6853770  30.0896080  34.4583400  56.1944720  29.4619420
  35.6575010  57.1137970  29.5554010  39.3387160  59.7294830  14.5302200
  39.8592820  59.0143850  14.1643350  39.9855560  60.3680700  14.8302710
  43.8865000  61.1523230  29.8537270  44.3006020  61.3068310  30.7027690
  42.9516000  61.2778450  30.0163050  44.3587170  58.4919390  31.8576420
  44.9407940  57.7371710  31.7696900  44.5348940  59.0226830  31.0807900
  38.6480230  61.1043710  27.8233200  39.0668340  61.9476440  27.6509440
  37.7288860  61.2415750  27.5939980  40.9844130  58.8359890  29.2071040
  41.1040340  58.2401030  29.9465880  41.8438130  58.8729580  28.7872340
  43.3232030  59.3897080  27.7833550  42.7967250  59.9139700  27.1798690
  43.6663370  60.0224470  28.4143280  35.7218420  56.7790450  14.2283260
  35.5207480  55.9157810  14.5896600  35.5510470  56.6923810  13.2904860
  36.4987650  67.4096720  28.9390930  35.9608740  68.1342780  28.6199630
  36.7521610  66.9327060  28.1488270  42.5706330  54.9947050  30.6979880
  41.8821850  54.3328590  30.6329870  43.2912350  54.5485320  31.1428340
  43.2006730  51.5898680  16.7570140  43.4809020  50.7466580  17.1129560
  42.4272460  51.8221790  17.2708890  34.5201220  53.8791070  14.2161140
  34.8227120  53.8858500  13.3080290  35.2595810  53.5288930  14.7128800
  39.3549860  68.6447930  29.1977580  39.2808560  69.5483070  29.5049950
  38.4528700  68.3259830  29.1699650  37.7386150  52.8225690  15.2017340
  37.3908150  52.1449680  14.6219790  37.9398920  52.3615200  16.0160730
  39.9035190  67.8106440  16.8203940  40.7985980  68.1491410  16.8422700
  39.9352820  67.0885850  16.1928220  33.5431350  63.1833490  15.0490940
  33.9806220  63.7263160  15.7048520  34.0279080  62.3580440  15.0587280
  30.7577150  65.9722520  22.5011200  31.0880160  65.1043580  22.2689840
  31.1868150  66.1781040  23.3316160  35.3539070  64.3031530  20.1613170
  35.0534610  64.1796500  21.0617080  35.2476560  63.4440120  19.7528900
  31.2467360  66.8393110  25.2392830  30.8098350  67.0193910  26.0716980
  31.8145040  67.5967730  25.0974550  46.8829540  66.3410110  29.5270140
  46.2831530  66.4002670  28.7834060  47.0123440  65.4015090  29.6566990
  48.1230990  64.0827930  14.8639850  47.2923950  64.1504580  15.3347080
  48.3002820  64.9732050  14.5606710  47.5787450  60.8275410  17.3674050
  48.3406360  61.3972060  17.4733740  47.5941820  60.2602610  18.1382360
  31.0791790  59.3513340  21.5981710  30.4240630  59.0824980  20.9541410
  31.9169740  59.2417820  21.1483690  48.5847420  61.6825510  22.2115980
  48.9556250  60.8992830  21.8051950  49.2249350  62.3714610  22.0333280
  45.5681180  63.0662090  27.6246300  44.7541020  63.4959250  27.8872090
  45.9755380  63.6780500  27.0115350  47.6306620  61.1209780  14.5246570
  47.9055460  62.0288660  14.3965790  47.4417360  61.0572310  15.4608560
  44.0282230  54.1454630  15.8200200  44.4467110  53.9585610  14.9796860
  43.7218290  53.2933680  16.1303130  47.5271960  59.0578770  19.5176000
  47.1515560  58.2906700  19.0857290  46.7975080  59.4401470  20.0050930
  32.1167720  59.7365910  26.1385050  32.4840760  59.6493310  27.0181070
  31.5478540  58.9732460  26.0391910  46.9171580  58.2050290  29.1515520
  46.6857670  57.9763040  28.2513470  47.1776130  59.1249840  29.1060410
  31.6683720  56.6475000  30.0443470  30.7739770  56.6141760  30.3837180
  32.2081270  56.8461790  30.8094720  45.3559650  53.4306720  31.9295220
  46.2329830  53.4390120  32.3129220  45.3680490  52.6937560  31.3187570
  30.2929870  56.5612270  17.5407040  29.3893950  56.8242470  17.3658700
  30.7770490  56.8323440  16.7607000  46.8022920  57.2836260  22.8183240
  47.3260400  56.7898910  22.1873410  47.3882340  57.4186620  23.5630810
  46.9812640  57.3676130  26.3402790  46.0315350  57.3339670  26.4547780
  47.1625650  58.2776240  26.1052560  32.8357080  55.6177810  15.4501420
  33.5448780  55.1961030  14.9648700  32.1197020  55.6853040  14.8184770
  32.4831240  51.6717140  14.4904070  33.2059370  52.2126080  14.8085290
  32.7555760  51.3980560  13.6145610  46.2922890  56.5409610  18.7575650
  46.7882010  56.3080480  19.5424530  46.0938960  55.7021450  18.3413290
  32.1723430  50.9223330  24.3926690  32.8199620  50.3720710  23.9521850
  32.5925270  51.1766480  25.2142500  47.7210050  55.1770560  21.2913330
  47.6109330  55.0226600  22.2295600  48.4817640  54.6491500  21.0488740
  46.0675770  51.1164690  27.7496330  46.7047990  51.7298830  28.1155520
  46.2150660  51.1525350  26.8045560  48.6100320  53.0078480  14.5319470
  49.5349630  52.8759660  14.3237760  48.5876110  53.0871300  15.4855920
  48.6838810  53.7789140  17.1576180  47.8890310  53.7134260  17.6869090
  48.8882090  54.7139780  17.1461530  45.6257230  67.8180690  21.1514570
  46.2216300  67.4965260  20.4748990  45.8835380  67.3452510  21.9427840
  33.5319800  64.2498600  31.3005200  33.4889430  63.8791510  32.1819660
  33.6630810  65.1876170  31.4407020  37.2325830  65.8058190  26.9014920
  36.9917190  66.0732750  26.0145440  38.1728470  65.9763920  26.9565780
  48.4929990  67.8252570  27.7025560  47.9988270  68.2221440  26.9852690
  47.8843280  67.2001780  28.0962840  33.3707830  67.1960850  28.4202980
  32.7768150  67.0645550  29.1593020  33.3631670  66.3598990  27.9545080
  42.8162850  50.4893080  26.6233010  41.9422690  50.8228190  26.4205940
  42.7073600  50.0166260  27.4484880  43.7234830  52.6963950  28.0074730
  43.3948190  51.8815710  27.6276460  44.6717130  52.6533760  27.8840420
  46.1769440  68.4675990  24.9812300  45.7172410  69.2191800  24.6070320
  45.5481900  67.7482460  24.9227100  33.0020060  64.5619230  27.3711020
  32.2754120  63.9424520  27.3036970  33.0629210  64.9559840  26.5009100
  36.6065160  66.7764230  24.1560430  37.1230180  66.1651590  23.6308690
  37.2562540  67.2793010  24.6471440  39.3460660  67.6672720  24.9829410
  39.6338470  67.4127020  24.1062420  39.8583880  67.1150080  25.5734980
  45.1158740  52.1086020  23.6075010  45.5566830  52.0531120  22.7596610
  44.8466330  53.0244030  23.6785190  46.9797310  51.7401260  21.6183830
  46.9185710  50.7962480  21.4714850  47.7589340  51.8481350  22.1637290
  31.2850060  67.8793620  20.5807780  31.1172100  67.2464300  21.2789670
  30.4184570  68.0853020  20.2301970  31.9078080  51.7110400  18.0839640
  32.6657440  51.8239280  17.5103670  31.4455250  52.5479600  18.0383070
  38.4491890  53.8249670  21.0741950  37.6366400  53.4506560  20.7337830
  38.9533530  53.0694750  21.3763140  42.9516870  50.4892120  22.3125020
  43.5546240  51.0612330  22.7873540  42.2109860  51.0531560  22.0898920
  46.0951470  50.8913680  17.5865300  46.2902100  51.7897130  17.8532730
  45.3081340  50.6600760  18.0798250  32.8912760  66.5726850  18.0257920
  32.3660380  66.9534880  17.3219880  32.8157340  67.1977620  18.7467630
  34.2803230  52.2374450  16.6241610  34.8095990  51.4504250  16.4949560
  34.9131550  52.9165640  16.8577140  36.4741070  51.9749590  19.6787000
  35.8443810  51.2736900  19.8457130  35.9346210  52.7353720  19.4620160
  39.4133020  68.5888820  32.3497610  40.3400330  68.3533090  32.3933570
  39.3983450  69.4160820  31.8683640  47.6478080  68.1314390  19.3471860
  47.8230270  67.4452130  18.7032780  46.9499650  68.6561440  18.9548530
  35.4905730  68.5209230  16.9007170  36.2224550  68.2368510  16.3531060
  35.7499400  68.2822510  17.7906550  34.6520520  64.6373960  16.9053500
  34.0229400  65.1059060  17.4539330  34.7668350  63.7923180  17.3399690
  45.9810580  67.8158680  32.1738650  46.7735900  67.3207910  31.9664610
  46.2743730  68.4948820  32.7814260  42.1070240  58.6879620   3.0554700
  42.0264290  57.7734230   2.7846410  41.6934660  59.1846690   2.3494410
  40.2388280  60.4658640   4.9363970  39.4630380  59.9859080   5.2262540
  40.8901210  59.7864290   4.7620130  34.2554110  60.7778450   5.8139730
  33.4238990  60.5227160   6.2136240  34.8635090  60.8489220   6.5497650
  44.2595710  64.8718830   3.7163100  43.7977240  64.1006070   4.0450270
  45.0721260  64.8984900   4.2215550  34.2355370  64.8118540   6.0097750
  34.5383410  63.9216280   5.8307970  34.9798960  65.3688760   5.7820000
  30.6279070  58.3385990   5.4821820  31.1995180  57.5708190   5.4825460
  30.6280610  58.6374750   4.5728430  40.4859020  67.1576840   3.3367090
  39.8670460  67.6134340   2.7661530  41.3410800  67.3128300   2.9356790
  39.6797270  63.1415830   4.9434130  39.6105550  62.2005770   4.7823260
  40.4417130  63.2317240   5.5156700  31.8703940  53.7470350   7.2690750
  31.6906780  52.8496100   7.5493510  31.4684020  54.2942220   7.9437700
  40.7102440  55.9486210   5.1703060  41.0867260  55.0758090   5.0576730
  40.6121950  56.2844910   4.2793500  44.4926560  53.4436650   2.1031400
  45.3136180  52.9533220   2.1456880  44.5260640  54.0334310   2.8563240
  32.4890610  56.2430850   5.8773090  33.1700720  56.5069220   6.4960490
  32.1738660  55.4031720   6.2111100  36.6815180  57.2898210   4.9645680
  37.1893400  57.7879180   5.6050700  37.2128420  56.5133410   4.7885040
  48.7826110  55.4603400   8.6675030  48.0778280  55.8485110   8.1490140
  49.0484030  56.1553690   9.2695960  34.9651280  51.9296770   9.2309100
  34.9669720  52.4469160   8.4255000  34.1355590  51.4526950   9.2079030
  36.2154130  61.5691950   7.4082600  35.8823510  62.1960870   8.0503670
  36.3920810  62.0953830   6.6284270  44.7288040  55.3837030   4.8758940
  44.0243610  55.6721920   5.4562050  45.0900200  56.1937140   4.5158500
  34.6466610  53.6406730   7.2379550  34.9883420  54.4848780   6.9433420
  33.7082420  53.7890470   7.3544890  35.4273230  63.5372750   9.2231780
  36.0447230  64.2123830   8.9416230  34.5666350  63.9460730   9.1319280
  46.3450820  65.0012160   7.1386420  45.6614340  65.6711270   7.1303090
  46.8845110  65.1992810   6.3731280  47.7974960  54.8291820   5.2668150
  46.8499870  54.8630800   5.3983580  48.1224950  55.6430770   5.6517510
  38.3294500  51.1289000   3.5624140  38.6369480  50.5735890   2.8459640
  37.3995200  51.2633460   3.3797130  43.8809560  66.8456290   5.8531600
  43.8936720  66.4418580   4.9853860  43.3284780  67.6203580   5.7493030
  43.2795000  61.7486130   7.1814210  43.6963790  61.5346240   6.3467670
  44.0034820  62.0058920   7.7522830  47.2257100  60.1473350   7.2730450
  46.3975730  60.2166440   6.7980580  47.8207580  60.7327660   6.8046280
  44.1899110  56.9342670   8.2185320  43.7770290  57.7596380   8.4725310
  43.4575060  56.3487710   8.0261680  36.3231900  59.7202570   3.0803990
  35.9188900  59.0079820   2.5849890  36.4095020  59.3755810   3.9692030
  36.7913600  63.4070130   5.2443200  36.4941890  62.8015600   4.5650980
  37.7413420  63.4447440   5.1332560  35.0360520  56.4945780   6.8603030
  35.5875110  56.6041120   6.0856280  35.5504030  56.8683380   7.5758260
  44.8799210  66.9802000   8.9066300  44.4029770  67.7874190   8.7138910
  44.1961000  66.3280330   9.0592510  35.8832030  63.1451820  11.8951000
  34.9860560  63.3691790  12.1424400  35.9084900  63.2686760  10.9462400
  34.7103250  60.0165140  10.4708370  34.5711020  60.8887940  10.8395770
  33.8284610  59.6737950  10.3256310  36.5083600  65.9586840  12.6793520
  36.4799030  66.3629790  11.8121950  36.3448570  65.0297200  12.5165120
  48.4598420  66.7413940  13.9757690  48.9358140  67.2196830  14.6546770
  49.0805580  66.6731430  13.2503190  30.6621900  61.7862690   6.3879280
  30.7402320  61.9211460   5.4435000  31.2763580  61.0778580   6.5807400
  31.9069530  63.4862880   2.7985460  31.4997610  63.6277470   1.9439060
  32.7982540  63.2023040   2.5956670  47.8631670  63.9326790  11.1357700
  47.9894730  63.6938670  10.2174880  47.9053050  63.1011330  11.6079780
  41.7248410  67.6354790   9.7052510  42.2393080  67.5462800  10.5074940
  40.8817490  67.9814490   9.9980420  42.9678870  67.0560400   1.7683000
  43.4235820  66.2749780   2.0821620  43.3071390  67.7667220   2.3124180
  47.7155680  55.9859250  12.1007440  47.0999950  56.4938920  11.5722900
  47.3952100  55.0857580  12.0433380  30.7181420  62.8276860   8.9273740
  30.8812460  62.3582220   8.1093110  31.1833870  62.3200420   9.5922580
  35.4900190  51.9582620   3.9634310  35.0468340  52.7392160   3.6318830
  36.0485180  52.2812510   4.6705250  39.7770000  54.8251140   9.5669630
  39.3149370  55.0334160  10.3789570  39.3748110  54.0110490   9.2640300
  44.7774510  56.0460090  10.6966290  43.9268100  55.7465840  11.0175360
  44.6176300  56.2902100   9.7850110  41.8724220  57.5461840  12.7965080
  42.1977630  56.7125590  12.4567310  42.6604550  58.0690360  12.9443410
  37.5276090  52.5029950   5.8223910  37.8248420  53.4092780   5.7415930
  38.0761650  52.0148730   5.2083480  37.7213620  57.9801770  12.3575830
  37.6257220  57.0396500  12.2076230  38.5645600  58.2016840  11.9623900
  32.8524160  54.3915440  10.5109610  32.4587550  55.2390650  10.7182390
  32.1642560  53.7541810  10.7018250  39.4269210  54.4750410  13.5806350
  38.7367530  54.2822610  14.2152440  40.1701510  54.7585050  14.1130650
  30.1541210  52.3143900   4.5439690  29.8654260  52.8846760   5.2564670
  30.8986970  51.8348350   4.9070920  41.7032180  58.3148850   6.4160270
  40.9713300  58.8235660   6.7650370  41.3056520  57.4978830   6.1149050
  38.1409570  54.9903050   4.8212760  38.1445630  54.5493000   3.9717300
  39.0360690  55.3120380   4.9284580  33.9911950  54.8729540   3.7806970
  33.6512000  55.3504770   4.5374020  33.2289270  54.4194660   3.4208070
  42.1658090  53.7682530   5.8283210  42.1830830  54.2191180   6.6725060
  41.9173670  52.8688170   6.0416650  45.5928840  51.1814710  11.6669590
  45.9174610  50.4504370  12.1927570  45.6285350  50.8628350  10.7650580
  32.2920400  62.2028290  11.0869550  31.9075190  61.5621960  11.6852510
  32.6032590  62.9064410  11.6564280  38.4417540  59.0504830   6.5678170
  38.8087670  58.5763400   7.3139510  38.2522600  59.9246400   6.9086510
  31.3058030  53.7948520   2.6971640  31.0204950  53.4304190   3.5350260
  31.2436890  53.0628980   2.0834780  36.2316910  58.0913470   8.8862380
  35.9273980  58.9705450   9.1112740  37.1863370  58.1513260   8.9219820
  45.5186680  61.2939820   5.2755620  46.2385800  61.7895110   4.8851730
  45.3168500  60.6157710   4.6309490  40.9005480  61.3648880  11.1624620
  40.8342790  60.4444550  10.9082210  40.2710620  61.4624320  11.8769260
  34.8036100  61.9654840   3.1208040  35.3214770  61.1623100   3.0664930
  34.3520120  61.9033980   3.9624870  32.2880640  58.9316210  10.0333740
  31.9295580  59.5970060  10.6207080  31.9935200  58.0999760  10.4046360
  35.4893760  59.3900450  12.9173290  35.1893900  59.5357630  12.0201110
  36.2605000  58.8305740  12.8246680  40.8322210  64.1869450  10.9128420
  40.8466750  63.2550410  10.6947330  40.1247310  64.2729210  11.5518190
  47.0433420  60.8276790  10.2597000  46.3181610  61.4205570  10.0626390
  47.5708880  60.8200330   9.4610370  42.5733010  62.5536960   3.7580850
  42.9256830  61.9565090   3.0982220  41.6895340  62.2281190   3.9289100
  40.2656110  65.8287020   8.0068920  40.9098330  66.0346400   8.6842340
  40.6285550  65.0675420   7.5539770  41.5388190  63.8319370   6.7246370
  42.1810420  63.1312530   6.8378540  42.0637540  64.6117810   6.5443260
  43.3125810  64.6314270   9.9282430  43.6482050  65.2180960  10.6060350
  42.3926150  64.5006980  10.1580220  30.8629210  52.4209450  10.7105840
  30.1487730  52.6206370  11.3158450  31.2824250  51.6449020  11.0820640
  31.1501800  66.4089710  11.6972370  31.2592920  65.4684450  11.5567760
  30.4982360  66.6744460  11.0486100  39.1414390  64.6805600  13.0970490
  38.8211260  63.9614840  13.6416180  38.4672750  65.3560670  13.1706550
  42.3567990  54.9131760   8.4607290  42.7248810  54.0926970   8.7886860
  41.4966190  54.9733650   8.8762940  39.3169980  57.5671350   8.6845260
  39.8155230  58.0417170   9.3497110  39.4592930  56.6434870   8.8915290
  46.5236840  53.7839310   9.5273650  46.0210440  54.5244710   9.8667460
  47.3393500  54.1723310   9.2110440  44.8158850  59.0272490   2.9735010
  43.8748990  59.0422720   3.1482700  45.1302920  58.2408450   3.4195310
  46.8184430  66.1981340   4.6489270  46.9431850  67.0212510   5.1213080
  47.6849990  65.9872070   4.3013420  34.2901960  68.2912550   4.3206400
  35.0264440  67.7428010   4.5914970  34.6742880  69.1568560   4.1812390
  33.2960240  67.4758620  13.5091980  34.0972970  67.7970670  13.9227380
  32.7812060  67.1154200  14.2311890  42.1324870  63.5838490  13.4567390
  41.5263030  63.6070090  12.7163140  41.8278980  62.8521530  13.9934640
  43.5625240  67.3118780  12.0676800  44.5146990  67.2276800  12.0177040
  43.4153460  67.9760490  12.7410590  31.0158050  59.9632080  12.4528030
  31.5197070  59.3839360  13.0244260  30.2765470  60.2472310  12.9904400
  38.0695990  61.3703070  11.9863550  37.3041660  61.9388070  11.9018220
  38.2511950  61.0779280  11.0931780  45.2119340  63.1008400  12.5438570
  45.9528810  63.4384160  12.0406030  44.4492020  63.2700460  11.9908340
  33.0481130  58.1061670  13.3478100  33.0886470  57.8075540  14.2563330
  33.9026630  58.5069280  13.1885620  34.9886940  56.6853770  11.3152590
  34.4583400  56.1944720  10.6875930  35.6575010  57.1137970  10.7810520
  43.8865000  61.1523230  11.0793780  44.3006020  61.3068310  11.9284200
  42.9516000  61.2778450  11.2419560  44.3587170  58.4919390  13.0832930
  44.9407940  57.7371710  12.9953410  44.5348940  59.0226830  12.3064410
  35.4759240  53.6516140  11.3949880  35.3816110  53.0336890  10.6700750
  34.8956630  54.3782430  11.1679790  38.2420680  52.2089380   8.4277270
  37.7937980  52.2313640   7.5822820  37.6085880  51.8108400   9.0247570
  38.6480230  61.1043710   9.0489710  39.0668340  61.9476440   8.8765950
  37.7288860  61.2415750   8.8196490  40.9844130  58.8359890  10.4327550
  41.1040340  58.2401030  11.1722390  41.8438130  58.8729580  10.0128850
  43.3232030  59.3897080   9.0090060  42.7967250  59.9139700   8.4055200
  43.6663370  60.0224470   9.6399790  36.4987650  67.4096720  10.1647440
  35.9608740  68.1342780   9.8456140  36.7521610  66.9327060   9.3744780
  37.7512900  55.3781240  11.6903370  38.3412590  55.0697090  12.3781190
  36.9333140  54.9060990  11.8463270  42.5706330  54.9947050  11.9236390
  41.8821850  54.3328590  11.8586380  43.2912350  54.5485320  12.3684850
  39.3549860  68.6447930  10.4234090  39.2808560  69.5483070  10.7306460
  38.4528700  68.3259830  10.3956160  30.7577150  65.9722520   3.7267710
  31.0880160  65.1043580   3.4946350  31.1868150  66.1781040   4.5572670
  31.2467360  66.8393110   6.4649340  30.8098350  67.0193910   7.2973490
  31.8145040  67.5967730   6.3231060  46.8829540  66.3410110  10.7526650
  46.2831530  66.4002670  10.0090570  47.0123440  65.4015090  10.8823500
  31.0791790  59.3513340   2.8238220  30.4240630  59.0824980   2.1797920
  31.9169740  59.2417820   2.3740200  48.5847420  61.6825510   3.4372490
  48.9556250  60.8992830   3.0308460  49.2249350  62.3714610   3.2589790
  45.5681180  63.0662090   8.8502810  44.7541020  63.4959250   9.1128600
  45.9755380  63.6780500   8.2371860  32.1167720  59.7365910   7.3641560
  32.4840760  59.6493310   8.2437580  31.5478540  58.9732460   7.2648420
  46.9171580  58.2050290  10.3772030  46.6857670  57.9763040   9.4769980
  47.1776130  59.1249840  10.3316920  31.6683720  56.6475000  11.2699980
  30.7739770  56.6141760  11.6093690  32.2081270  56.8461790  12.0351230
  45.3559650  53.4306720  13.1551730  46.2329830  53.4390120  13.5385730
  45.3680490  52.6937560  12.5444080  46.8022920  57.2836260   4.0439750
  47.3260400  56.7898910   3.4129920  47.3882340  57.4186620   4.7887320
  46.9812640  57.3676130   7.5659300  46.0315350  57.3339670   7.6804290
  47.1625650  58.2776240   7.3309070  32.1723430  50.9223330   5.6183200
  32.8199620  50.3720710   5.1778360  32.5925270  51.1766480   6.4399010
  47.7210050  55.1770560   2.5169840  47.6109330  55.0226600   3.4552110
  48.4817640  54.6491500   2.2745250  46.0675770  51.1164690   8.9752840
  46.7047990  51.7298830   9.3412030  46.2150660  51.1525350   8.0302070
  45.6257230  67.8180690   2.3771080  46.2216300  67.4965260   1.7005500
  45.8835380  67.3452510   3.1684350  31.9255430  51.0779000   8.3608520
  31.5770250  51.5342820   9.1266700  31.5943130  50.1836130   8.4430950
  33.5319800  64.2498600  12.5261710  33.4889430  63.8791510  13.4076170
  33.6630810  65.1876170  12.6663530  37.2325830  65.8058190   8.1271430
  36.9917190  66.0732750   7.2401950  38.1728470  65.9763920   8.1822290
  39.4380250  52.2690880  11.8827940  39.3769140  52.8612710  12.6323350
  40.3780630  52.1616840  11.7378200  42.0754810  51.9260940  11.5220230
  42.6895220  52.2440230  10.8601310  42.6204370  51.4409530  12.1416090
  48.4929990  67.8252570   8.9282070  47.9988270  68.2221440   8.2109200
  47.8843280  67.2001780   9.3219350  32.5976070  50.6055200  11.6359290
  33.1459060  50.4243250  10.8725400  32.6631380  49.8149310  12.1715600
  33.3707830  67.1960850   9.6459490  32.7768150  67.0645550  10.3849530
  33.3631670  66.3598990   9.1801590  42.8162850  50.4893080   7.8489520
  41.9422690  50.8228190   7.6462450  42.7073600  50.0166260   8.6741390
  43.7234830  52.6963950   9.2331240  43.3948190  51.8815710   8.8532970
  44.6717130  52.6533760   9.1096930  46.1769440  68.4675990   6.2068810
  45.7172410  69.2191800   5.8326830  45.5481900  67.7482460   6.1483610
  33.0020060  64.5619230   8.5967530  32.2754120  63.9424520   8.5293480
  33.0629210  64.9559840   7.7265610  36.6065160  66.7764230   5.3816940
  37.1230180  66.1651590   4.8565200  37.2562540  67.2793010   5.8727950
  39.3460660  67.6672720   6.2085920  39.6338470  67.4127020   5.3318930
  39.8583880  67.1150080   6.7991490  40.5637670  51.4062920   6.7882430
  39.7809460  51.8808420   7.0679190  40.2700600  50.5017750   6.6795610
  45.1158740  52.1086020   4.8331520  45.5566830  52.0531120   3.9853120
  44.8466330  53.0244030   4.9041700  46.9797310  51.7401260   2.8440340
  46.9185710  50.7962480   2.6971360  47.7589340  51.8481350   3.3893800
  38.4491890  53.8249670   2.2998460  37.6366400  53.4506560   1.9594340
  38.9533530  53.0694750   2.6019650  42.9516870  50.4892120   3.5381530
  43.5546240  51.0612330   4.0130050  42.2109860  51.0531560   3.3155430
  39.4133020  68.5888820  13.5754120  40.3400330  68.3533090  13.6190080
  39.3983450  69.4160820  13.0940150  36.5996630  51.2533570  13.3396000
  36.3180900  51.7567170  12.5756820  36.9816330  50.4555320  12.9738130
  43.2012090  50.6687150  13.9176470  43.0877540  50.9881760  14.8127990
  44.0181830  51.0699660  13.6213750  45.9810580  67.8158680  13.3995160
  46.7735900  67.3207910  13.1921120  46.2743730  68.4948820  14.0070770
  42.1070240  39.9136130  96.9272150  42.0264290  38.9990740  96.6563860
  41.6934660  40.4103200  96.2211860  40.2388280  41.6915150  98.8081420
  39.4630380  41.2115590  99.0979990  40.8901210  41.0120800  98.6337580
  34.2554110  42.0034960  99.6857180  33.4238990  41.7483670 100.0853690
  34.8635090  42.0745730 100.4215100  44.2595710  46.0975340  97.5880550
  43.7977240  45.3262580  97.9167720  45.0721260  46.1241410  98.0933000
  34.2355370  46.0375050  99.8815200  34.5383410  45.1472790  99.7025420
  34.9798960  46.5945270  99.6537450  32.6646060  36.9636850  93.4699570
  31.7762760  37.3052820  93.3679450  32.9487250  36.7637170  92.5780400
  30.6279070  39.5642500  99.3539270  31.1995180  38.7964700  99.3542910
  30.6280610  39.8631260  98.4445880  40.4859020  48.3833350  97.2084540
  39.8670460  48.8390850  96.6378980  41.3410800  48.5384810  96.8074240
  39.6797270  44.3672340  98.8151580  39.6105550  43.4262280  98.6540710
  40.4417130  44.4573750  99.3874150  40.7102440  37.1742720  99.0420510
  41.0867260  36.3014600  98.9294180  40.6121950  37.5101420  98.1510950
  34.8407450  35.5468350  94.5037950  34.9474200  36.4472080  94.8106710
  33.9299810  35.4986320  94.2132600  44.4926560  34.6693160  95.9748850
  45.3136180  34.1789730  96.0174330  44.5260640  35.2590820  96.7280690
  32.4890610  37.4687360  99.7490540  33.1700720  37.7325730 100.3677940
  32.1738660  36.6288230 100.0828550  36.6815180  38.5154720  98.8363130
  37.1893400  39.0135690  99.4768150  37.2128420  37.7389920  98.6602490
  41.3522370  43.2672590  94.6016450  40.7339640  43.7322040  94.0379170
  41.8645620  43.9600070  95.0185960  44.7288040  36.6093540  98.7476390
  44.0243610  36.8978430  99.3279500  45.0900200  37.4193650  98.3875950
  34.6466610  34.8663240 101.1097000  34.9883420  35.7105290 100.8150870
  33.7082420  35.0146980 101.2262340  30.7205570  43.9529120  91.9756080
  30.3433550  44.4416220  91.2440980  30.9778640  44.6254400  92.6062610
  46.3450820  46.2268670 101.0103870  45.6614340  46.8967780 101.0020540
  46.8845110  46.4249320 100.2448730  47.7974960  36.0548330  99.1385600
  46.8499870  36.0887310  99.2701030  48.1224950  36.8687280  99.5234960
  38.3294500  32.3545510  97.4341590  38.6369480  31.7992400  96.7177090
  37.3995200  32.4889970  97.2514580  43.8809560  48.0712800  99.7249050
  43.8936720  47.6675090  98.8571310  43.3284780  48.8460090  99.6210480
  45.1754980  44.7929020  94.8139220  45.0651310  43.8503350  94.9388640
  45.1723230  45.1544660  95.7001980  43.2795000  42.9742640 101.0531660
  43.6963790  42.7602750 100.2185120  44.0034820  43.2315430 101.6240280
  40.7175260  40.4194340  94.1701710  39.7904540  40.3531720  94.3990180
  40.8700080  41.3574470  94.0556950  40.7044340  36.6911340  91.1668870
  39.7648010  36.8525300  91.2521330  41.0227600  37.4097020  90.6204860
  47.2257100  41.3729860 101.1447900  46.3975730  41.4422950 100.6698030
  47.8207580  41.9584170 100.6763730  44.7472550  41.9814640  94.6736960
  44.1284970  41.6434190  94.0263260  44.7297000  41.3374400  95.3816150
  36.3231900  40.9459080  96.9521440  35.9188900  40.2336330  96.4567340
  36.4095020  40.6012320  97.8409480  36.7913600  44.6326640  99.1160650
  36.4941890  44.0272110  98.4368430  37.7413420  44.6703950  99.0050010
  35.0360520  37.7202290 100.7320480  35.5875110  37.8297630  99.9573730
  35.5504030  38.0939890 101.4475710  42.9237250  41.2201450  91.6809710
  43.3630530  40.3823880  91.5347530  43.6365670  41.8530850  91.7673850
  41.0332630  46.1597520  95.6490950  41.4728540  46.9021850  95.2346340
  40.9719520  46.4024090  96.5729910  46.5054390  32.4744260  89.9950750
  46.1927050  32.5671090  90.8949820  47.2666860  33.0525290  89.9448180
  33.0236530  39.8404060  94.4528090  32.9034130  40.5666150  93.8409360
  32.7137420  39.0706970  93.9756000  30.6621900  43.0119200 100.2596730
  30.7402320  43.1467970  99.3152450  31.2763580  42.3035090 100.4524850
  31.9069530  44.7119390  96.6702910  31.4997610  44.8533980  95.8156510
  32.7982540  44.4279550  96.4674120  43.7002810  49.1466640  93.0053960
  43.5403950  48.8569580  93.9035790  43.5349520  48.3706770  92.4699190
  36.1791190  48.9265170  94.7825580  36.0033670  48.0100710  94.5693380
  35.3246930  49.2852460  95.0223380  43.4028940  46.6554200  91.5651960
  42.7094100  46.6531490  90.9054240  44.1451800  46.2313520  91.1346130
  42.9678870  48.2816910  95.6400450  43.4235820  47.5006290  95.9539070
  43.3071390  48.9923730  96.1841630  35.4900190  33.1839130  97.8351760
  35.0468340  33.9648670  97.5036280  36.0485180  33.5069020  98.5422700
  38.6059010  32.8049830  92.7157590  37.9813190  32.8009700  93.4410900
  38.5189130  31.9380790  92.3193560  37.5276090  33.7286460  99.6941360
  37.8248420  34.6349290  99.6133380  38.0761650  33.2405240  99.0800930
  35.2814410  38.3072700  95.5633010  35.0555330  38.0909870  96.4679630
  34.5006940  38.7401160  95.2178980  42.5112170  38.3136070  94.1623660
  41.9121060  39.0371870  93.9787280  43.0591780  38.2512850  93.3800110
  41.1177040  36.9499610  96.1926940  41.5106610  37.2671810  95.3795630
  41.4793890  36.0711490  96.3071460  30.1541210  33.5400410  98.4157140
  29.8654260  34.1103270  99.1282120  30.8986970  33.0604860  98.7788370
  30.3411440  37.4820530  89.6259860  30.2586110  38.4251290  89.7674850
  29.9894500  37.3395440  88.7472210  41.7032180  39.5405360 100.2877720
  40.9713300  40.0492170 100.6367820  41.3056520  38.7235340  99.9866500
  38.1409570  36.2159560  98.6930210  38.1445630  35.7749510  97.8434750
  39.0360690  36.5376890  98.8002030  33.9911950  36.0986050  97.6524420
  33.6512000  36.5761280  98.4091470  33.2289270  35.6451170  97.2925520
  38.2029720  37.2171640  91.6836970  38.3242540  37.1758120  92.6322790
  37.8178230  38.0795790  91.5283700  42.1658090  34.9939040  99.7000660
  42.1830830  35.4447690 100.5442510  41.9173670  34.0944680  99.9134100
  37.2151220  39.5272780  91.0820270  36.6468120  39.0791030  90.4556180
  37.9240220  39.8865560  90.5485420  38.4417540  40.2761340 100.4395620
  38.8087670  39.8019910 101.1856960  38.2522600  41.1502910 100.7803960
  31.3058030  35.0205030  96.5689090  31.0204950  34.6560700  97.4067710
  31.2436890  34.2885490  95.9552230  34.7598700  43.5230970  93.3546680
  33.9860960  42.9828590  93.1945400  35.4893330  43.0037580  93.0164440
  45.5186680  42.5196330  99.1473070  46.2385800  43.0151620  98.7569180
  45.3168500  41.8414220  98.5026940  40.9796620  33.9134290  93.2902460
  40.1661230  33.4147460  93.2147770  40.7858570  34.7532540  92.8738810
  43.6945010  38.2853940  91.5864620  44.5824630  38.5971170  91.4115960
  43.6650100  37.4126190  91.1945200  34.8036100  43.1911350  96.9925490
  35.3214770  42.3879610  96.9382380  34.3520120  43.1290490  97.8342320
  39.6905600  44.4577630  92.2652790  40.0321300  45.2019860  91.7696110
  38.8618310  44.7708750  92.6277620  45.9659280  39.5965780  91.0544480
  45.8823000  40.0280000  90.2040920  46.6853470  40.0564130  91.4871300
  46.9946530  46.4508040  93.7826610  46.3522690  45.7963660  94.0570330
  46.6077190  46.8563130  93.0067280  42.5733010  43.7793470  97.6298300
  42.9256830  43.1821600  96.9699670  41.6895340  43.4537700  97.8006550
  38.6596290  44.5391160  95.0368710  39.3467420  45.0860370  95.4176300
  37.8728710  45.0831890  95.0718320  30.7988690  40.1563980  90.5285790
  31.6683540  40.4388780  90.8121710  30.3079010  40.9699850  90.4134600
  37.9623500  41.5437190  94.6494070  38.4186280  42.3542440  94.8754260
  37.6111710  41.2260330  95.4812560  33.8635280  31.8874840  95.1216590
  33.7349910  31.8792740  96.0701510  33.0397300  32.2257930  94.7707600
  41.5388190  45.0575880 100.5963820  42.1810420  44.3569040 100.7095990
  42.0637540  45.8374320 100.4160710  45.3843910  45.3424500  90.3202960
  45.1581490  44.6254940  90.9127600  44.9940110  45.0936940  89.4824710
  31.1659940  49.3691360  91.0947420  31.5257580  49.9680700  90.4404690
  31.0252280  49.9151250  91.8682450  44.9660160  43.2596440  91.9817120
  44.6781860  43.7209130  92.7695000  45.7612330  42.7994210  92.2501340
  37.1828560  46.7522560  91.9121090  37.1738660  47.4852250  91.2965600
  36.2626920  46.5054140  92.0048050  32.7835200  41.9737450  92.6567850
  32.1763150  42.7136350  92.6663150  33.2584550  42.0636810  91.8306050
  45.7230020  35.0945210  93.1412300  45.0943180  35.1990880  92.4270530
  45.2281940  35.3141990  93.9306180  40.1688160  46.8150800  90.5746280
  40.2700140  46.6114790  89.6448260  39.2689900  46.5609080  90.7794060
  37.6914050  37.3731160  94.5570180  36.9830200  37.8417500  94.9983790
  37.9758530  36.7153170  95.1915370  41.7229480  34.0981820  95.9965970
  41.5997260  34.1167950  95.0475480  42.6714040  34.1460760  96.1164370
  38.8106270  49.3337120  95.2693950  39.0647770  49.2958510  94.3473320
  37.8618750  49.2070450  95.2622200  35.8949070  35.6816240  91.9320890
  36.7439600  36.1186390  91.8661080  35.5280340  35.9936500  92.7592950
  44.8158850  40.2529000  96.8452460  43.8748990  40.2679230  97.0200150
  45.1302920  39.4664960  97.2912760  34.7940490  41.9348600  90.4056420
  35.5603760  41.8229960  90.9681850  34.8715180  41.2386570  89.7533190
  33.4887250  39.3673670  91.0889310  33.5690840  38.4201180  91.2006710
  34.3807000  39.6980550  91.1949970  46.8184430  47.4237850  98.5206720
  46.9431850  48.2469020  98.9930530  47.6849990  47.2128580  98.1730870
  34.2901960  49.5169060  98.1923850  35.0264440  48.9684520  98.4632420
  34.6742880  50.3825070  98.0529840  31.1747440  45.5842630  94.0665360
  30.2487220  45.8263770  94.0570770  31.6403870  46.4116890  93.9450110
  37.4004270  48.6899370  90.0149420  38.1932880  48.9788200  89.5631210
  36.8808620  48.2591540  89.3361900  46.4534440  47.9169500  91.4386160
  46.1675950  47.5034640  90.6240340  46.2553990  48.8457210  91.3186680
  37.9181670  43.9102780  89.8791770  37.8132310  43.2955130  90.6053150
  37.7505890  43.3868670  89.0954780  41.1584400  42.9722810  90.4833760
  40.6094500  43.4192110  91.1276500  41.7803660  42.4672060  91.0071430
  36.8259520  41.9313730  92.3799060  37.2475940  41.7653600  93.2230450
  36.9510360  41.1213960  91.8854200  39.3387160  40.9551340  89.6276160
  39.8592820  40.2400360  89.2617310  39.9855560  41.5937210  89.9276670
  35.7218420  38.0046960  89.3257220  35.5207480  37.1414320  89.6870560
  35.5510470  37.9180320  88.3878820  43.2006730  32.8155190  91.8544100
  43.4809020  31.9723090  92.2103520  42.4272460  33.0478300  92.3682850
  34.5201220  35.1047580  89.3135100  34.8227120  35.1115010  88.4054250
  35.2595810  34.7545440  89.8102760  37.7386150  34.0482200  90.2991300
  37.3908150  33.3706190  89.7193750  37.9398920  33.5871710  91.1134690
  39.9035190  49.0362950  91.9177900  40.7985980  49.3747920  91.9396660
  39.9352820  48.3142360  91.2902180  33.5431350  44.4090000  90.1464900
  33.9806220  44.9519670  90.8022480  34.0279080  43.5836950  90.1561240
  30.7577150  47.1979030  97.5985160  31.0880160  46.3300090  97.3663800
  31.1868150  47.4037550  98.4290120  35.3539070  45.5288040  95.2587130
  35.0534610  45.4053010  96.1591040  35.2476560  44.6696630  94.8502860
  31.2467360  48.0649620 100.3366790  30.8098350  48.2450420 101.1690940
  31.8145040  48.8224240 100.1948510  48.1230990  45.3084440  89.9613810
  47.2923950  45.3761090  90.4321040  48.3002820  46.1988560  89.6580670
  47.5787450  42.0531920  92.4648010  48.3406360  42.6228570  92.5707700
  47.5941820  41.4859120  93.2356320  31.0791790  40.5769850  96.6955670
  30.4240630  40.3081490  96.0515370  31.9169740  40.4674330  96.2457650
  48.5847420  42.9082020  97.3089940  48.9556250  42.1249340  96.9025910
  49.2249350  43.5971120  97.1307240  47.6306620  42.3466290  89.6220530
  47.9055460  43.2545170  89.4939750  47.4417360  42.2828820  90.5582520
  44.0282230  35.3711140  90.9174160  44.4467110  35.1842120  90.0770820
  43.7218290  34.5190190  91.2277090  47.5271960  40.2835280  94.6149960
  47.1515560  39.5163210  94.1831250  46.7975080  40.6657980  95.1024890
  30.2929870  37.7868780  92.6381000  29.3893950  38.0498980  92.4632660
  30.7770490  38.0579950  91.8580960  46.8022920  38.5092770  97.9157200
  47.3260400  38.0155420  97.2847370  47.3882340  38.6443130  98.6604770
  46.9812640  38.5932640 101.4376750  46.0315350  38.5596180 101.5521740
  47.1625650  39.5032750 101.2026520  32.8357080  36.8434320  90.5475380
  33.5448780  36.4217540  90.0622660  32.1197020  36.9109550  89.9158730
  32.4831240  32.8973650  89.5878030  33.2059370  33.4382590  89.9059250
  32.7555760  32.6237070  88.7119570  46.2922890  37.7666120  93.8549610
  46.7882010  37.5336990  94.6398490  46.0938960  36.9277960  93.4387250
  32.1723430  32.1479840  99.4900650  32.8199620  31.5977220  99.0495810
  32.5925270  32.4022990 100.3116460  47.7210050  36.4027070  96.3887290
  47.6109330  36.2483110  97.3269560  48.4817640  35.8748010  96.1462700
  48.6100320  34.2334990  89.6293430  49.5349630  34.1016170  89.4211720
  48.5876110  34.3127810  90.5829880  48.6838810  35.0045650  92.2550140
  47.8890310  34.9390770  92.7843050  48.8882090  35.9396290  92.2435490
  45.6257230  49.0437200  96.2488530  46.2216300  48.7221770  95.5722950
  45.8835380  48.5709020  97.0401800  46.1769440  49.6932500 100.0786260
  45.7172410  50.4448310  99.7044280  45.5481900  48.9738970 100.0201060
  36.6065160  48.0020740  99.2534390  37.1230180  47.3908100  98.7282650
  37.2562540  48.5049520  99.7445400  39.3460660  48.8929230 100.0803370
  39.6338470  48.6383530  99.2036380  39.8583880  48.3406590 100.6708940
  40.5637670  32.6319430 100.6599880  39.7809460  33.1064930 100.9396640
  40.2700600  31.7274260 100.5513060  45.1158740  33.3342530  98.7048970
  45.5566830  33.2787630  97.8570570  44.8466330  34.2500540  98.7759150
  46.9797310  32.9657770  96.7157790  46.9185710  32.0218990  96.5688810
  47.7589340  33.0737860  97.2611250  31.2850060  49.1050130  95.6781740
  31.1172100  48.4720810  96.3763630  30.4184570  49.3109530  95.3275930
  31.9078080  32.9366910  93.1813600  32.6657440  33.0495790  92.6077630
  31.4455250  33.7736110  93.1357030  38.4491890  35.0506180  96.1715910
  37.6366400  34.6763070  95.8311790  38.9533530  34.2951260  96.4737100
  42.9516870  31.7148630  97.4098980  43.5546240  32.2868840  97.8847500
  42.2109860  32.2788070  97.1872880  46.0951470  32.1170190  92.6839260
  46.2902100  33.0153640  92.9506690  45.3081340  31.8857270  93.1772210
  32.8912760  47.7983360  93.1231880  32.3660380  48.1791390  92.4193840
  32.8157340  48.4234130  93.8441590  34.2803230  33.4630960  91.7215570
  34.8095990  32.6760760  91.5923520  34.9131550  34.1422150  91.9551100
  36.4741070  33.2006100  94.7760960  35.8443810  32.4993410  94.9431090
  35.9346210  33.9610230  94.5594120  47.6478080  49.3570900  94.4445820
  47.8230270  48.6708640  93.8006740  46.9499650  49.8817950  94.0522490
  35.4905730  49.7465740  91.9981130  36.2224550  49.4625020  91.4505020
  35.7499400  49.5079020  92.8880510  34.6520520  45.8630470  92.0027460
  34.0229400  46.3315570  92.5513290  34.7668350  45.0179690  92.4373650
  40.2388280  41.6915150  80.0337930  39.4630380  41.2115590  80.3236500
  40.8901210  41.0120800  79.8594090  44.2595710  46.0975340  78.8137060
  43.7977240  45.3262580  79.1424230  45.0721260  46.1241410  79.3189510
  32.6646060  36.9636850  74.6956080  31.7762760  37.3052820  74.5935960
  32.9487250  36.7637170  73.8036910  30.6279070  39.5642500  80.5795780
  31.1995180  38.7964700  80.5799420  30.6280610  39.8631260  79.6702390
  40.4859020  48.3833350  78.4341050  39.8670460  48.8390850  77.8635490
  41.3410800  48.5384810  78.0330750  39.6797270  44.3672340  80.0408090
  39.6105550  43.4262280  79.8797220  40.4417130  44.4573750  80.6130660
  31.8703940  34.9726860  82.3664710  31.6906780  34.0752610  82.6467470
  31.4684020  35.5198730  83.0411660  34.8407450  35.5468350  75.7294460
  34.9474200  36.4472080  76.0363220  33.9299810  35.4986320  75.4389110
  32.4890610  37.4687360  80.9747050  33.1700720  37.7325730  81.5934450
  32.1738660  36.6288230  81.3085060  36.6815180  38.5154720  80.0619640
  37.1893400  39.0135690  80.7024660  37.2128420  37.7389920  79.8859000
  34.9651280  33.1553280  84.3283060  34.9669720  33.6725670  83.5228960
  34.1355590  32.6783460  84.3052990  36.2154130  42.7948460  82.5056560
  35.8823510  43.4217380  83.1477630  36.3920810  43.3210340  81.7258230
  34.6466610  34.8663240  82.3353510  34.9883420  35.7105290  82.0407380
  33.7082420  35.0146980  82.4518850  35.4273230  44.7629260  84.3205740
  36.0447230  45.4380340  84.0390190  34.5666350  45.1717240  84.2293240
  46.3450820  46.2268670  82.2360380  45.6614340  46.8967780  82.2277050
  46.8845110  46.4249320  81.4705240  43.8809560  48.0712800  80.9505560
  43.8936720  47.6675090  80.0827820  43.3284780  48.8460090  80.8466990
  45.1754980  44.7929020  76.0395730  45.0651310  43.8503350  76.1645150
  45.1723230  45.1544660  76.9258490  43.2795000  42.9742640  82.2788170
  43.6963790  42.7602750  81.4441630  44.0034820  43.2315430  82.8496790
  36.7913600  44.6326640  80.3417160  36.4941890  44.0272110  79.6624940
  37.7413420  44.6703950  80.2306520  35.0360520  37.7202290  81.9576990
  35.5875110  37.8297630  81.1830240  35.5504030  38.0939890  82.6732220
  44.8799210  48.2058510  84.0040260  44.4029770  49.0130700  83.8112870
  44.1961000  47.5536840  84.1566470  35.8832030  44.3708330  86.9924960
  34.9860560  44.5948300  87.2398360  35.9084900  44.4943270  86.0436360
  34.7103250  41.2421650  85.5682330  34.5711020  42.1144450  85.9369730
  33.8284610  40.8994460  85.4230270  41.0332630  46.1597520  76.8747460
  41.4728540  46.9021850  76.4602850  40.9719520  46.4024090  77.7986420
  36.5083600  47.1843350  87.7767480  36.4799030  47.5886300  86.9095910
  36.3448570  46.2553710  87.6139080  48.4598420  47.9670450  89.0731650
  48.9358140  48.4453340  89.7520730  49.0805580  47.8987940  88.3477150
  47.8631670  45.1583300  86.2331660  47.9894730  44.9195180  85.3148840
  47.9053050  44.3267840  86.7053740  41.7248410  48.8611300  84.8026470
  42.2393080  48.7719310  85.6048900  40.8817490  49.2071000  85.0954380
  43.7002810  49.1466640  74.2310470  43.5403950  48.8569580  75.1292300
  43.5349520  48.3706770  73.6955700  42.9678870  48.2816910  76.8656960
  43.4235820  47.5006290  77.1795580  43.3071390  48.9923730  77.4098140
  30.7181420  44.0533370  84.0247700  30.8812460  43.5838730  83.2067070
  31.1833870  43.5456930  84.6896540  35.4900190  33.1839130  79.0608270
  35.0468340  33.9648670  78.7292790  36.0485180  33.5069020  79.7679210
  39.7770000  36.0507650  84.6643590  39.3149370  36.2590670  85.4763530
  39.3748110  35.2367000  84.3614260  41.8724220  38.7718350  87.8939040
  42.1977630  37.9382100  87.5541270  42.6604550  39.2946870  88.0417370
  35.2814410  38.3072700  76.7889520  35.0555330  38.0909870  77.6936140
  34.5006940  38.7401160  76.4435490  37.7213620  39.2058280  87.4549790
  37.6257220  38.2653010  87.3050190  38.5645600  39.4273350  87.0597860
  32.8524160  35.6171950  85.6083570  32.4587550  36.4647160  85.8156350
  32.1642560  34.9798320  85.7992210  39.4269210  35.7006920  88.6780310
  38.7367530  35.5079120  89.3126400  40.1701510  35.9841560  89.2104610
  30.1541210  33.5400410  79.6413650  29.8654260  34.1103270  80.3538630
  30.8986970  33.0604860  80.0044880  30.3411440  37.4820530  70.8516370
  30.2586110  38.4251290  70.9931360  29.9894500  37.3395440  69.9728720
  41.7032180  39.5405360  81.5134230  40.9713300  40.0492170  81.8624330
  41.3056520  38.7235340  81.2123010  33.9911950  36.0986050  78.8780930
  33.6512000  36.5761280  79.6347980  33.2289270  35.6451170  78.5182030
  32.2920400  43.4284800  86.1843510  31.9075190  42.7878470  86.7826470
  32.6032590  44.1320920  86.7538240  38.4417540  40.2761340  81.6652130
  38.8087670  39.8019910  82.4113470  38.2522600  41.1502910  82.0060470
  31.3058030  35.0205030  77.7945600  31.0204950  34.6560700  78.6324220
  31.2436890  34.2885490  77.1808740  36.2316910  39.3169980  83.9836340
  35.9273980  40.1961960  84.2086700  37.1863370  39.3769770  84.0193780
  45.5186680  42.5196330  80.3729580  46.2385800  43.0151620  79.9825690
  45.3168500  41.8414220  79.7283450  40.9005480  42.5905390  86.2598580
  40.8342790  41.6701060  86.0056170  40.2710620  42.6880830  86.9743220
  32.2880640  40.1572720  85.1307700  31.9295580  40.8226570  85.7181040
  31.9935200  39.3256270  85.5020320  35.4893760  40.6156960  88.0147250
  35.1893900  40.7614140  87.1175070  36.2605000  40.0562250  87.9220640
  40.8322210  45.4125960  86.0102380  40.8466750  44.4806920  85.7921290
  40.1247310  45.4985720  86.6492150  47.0433420  42.0533300  85.3570960
  46.3181610  42.6462080  85.1600350  47.5708880  42.0456840  84.5584330
  46.9946530  46.4508040  75.0083120  46.3522690  45.7963660  75.2826840
  46.6077190  46.8563130  74.2323790  42.5733010  43.7793470  78.8554810
  42.9256830  43.1821600  78.1956180  41.6895340  43.4537700  79.0263060
  40.2656110  47.0543530  83.1042880  40.9098330  47.2602910  83.7816300
  40.6285550  46.2931930  82.6513730  33.8635280  31.8874840  76.3473100
  33.7349910  31.8792740  77.2958020  33.0397300  32.2257930  75.9964110
  41.5388190  45.0575880  81.8220330  42.1810420  44.3569040  81.9352500
  42.0637540  45.8374320  81.6417220  45.3843910  45.3424500  71.5459470
  45.1581490  44.6254940  72.1384110  44.9940110  45.0936940  70.7081220
  43.3125810  45.8570780  85.0256390  43.6482050  46.4437470  85.7034310
  42.3926150  45.7263490  85.2554180  30.8629210  33.6465960  85.8079800
  30.1487730  33.8462880  86.4132410  31.2824250  32.8705530  86.1794600
  44.9660160  43.2596440  73.2073630  44.6781860  43.7209130  73.9951510
  45.7612330  42.7994210  73.4757850  31.1501800  47.6346220  86.7946330
  31.2592920  46.6940960  86.6541720  30.4982360  47.9000970  86.1460060
  39.1414390  45.9062110  88.1944450  38.8211260  45.1871350  88.7390140
  38.4672750  46.5817180  88.2680510  37.6914050  37.3731160  75.7826690
  36.9830200  37.8417500  76.2240300  37.9758530  36.7153170  76.4171880
  39.3169980  38.7927860  83.7819220  39.8155230  39.2673680  84.4471070
  39.4592930  37.8691380  83.9889250  35.8949070  35.6816240  73.1577400
  36.7439600  36.1186390  73.0917590  35.5280340  35.9936500  73.9849460
  46.8184430  47.4237850  79.7463230  46.9431850  48.2469020  80.2187040
  47.6849990  47.2128580  79.3987380  34.2901960  49.5169060  79.4180360
  35.0264440  48.9684520  79.6888930  34.6742880  50.3825070  79.2786350
  33.2960240  48.7015130  88.6065940  34.0972970  49.0227180  89.0201340
  32.7812060  48.3410710  89.3285850  42.1324870  44.8095000  88.5541350
  41.5263030  44.8326600  87.8137100  41.8278980  44.0778040  89.0908600
  43.5625240  48.5375290  87.1650760  44.5146990  48.4533310  87.1151000
  43.4153460  49.2017000  87.8384550  46.4534440  47.9169500  72.6642670
  46.1675950  47.5034640  71.8496850  46.2553990  48.8457210  72.5443190
  31.0158050  41.1888590  87.5501990  31.5197070  40.6095870  88.1218220
  30.2765470  41.4728820  88.0878360  38.0695990  42.5959580  87.0837510
  37.3041660  43.1644580  86.9992180  38.2511950  42.3035790  86.1905740
  45.2119340  44.3264910  87.6412530  45.9528810  44.6640670  87.1379990
  44.4492020  44.4956970  87.0882300  33.0481130  39.3318180  88.4452060
  33.0886470  39.0332050  89.3537290  33.9026630  39.7325790  88.2859580
  34.9886940  37.9110280  86.4126550  34.4583400  37.4201230  85.7849890
  35.6575010  38.3394480  85.8784480  43.8865000  42.3779740  86.1767740
  44.3006020  42.5324820  87.0258160  42.9516000  42.5034960  86.3393520
  44.3587170  39.7175900  88.1806890  44.9407940  38.9628220  88.0927370
  44.5348940  40.2483340  87.4038370  35.4759240  34.8772650  86.4923840
  35.3816110  34.2593400  85.7674710  34.8956630  35.6038940  86.2653750
  38.2420680  33.4345890  83.5251230  37.7937980  33.4570150  82.6796780
  37.6085880  33.0364910  84.1221530  38.6480230  42.3300220  84.1463670
  39.0668340  43.1732950  83.9739910  37.7288860  42.4672260  83.9170450
  40.9844130  40.0616400  85.5301510  41.1040340  39.4657540  86.2696350
  41.8438130  40.0986090  85.1102810  43.3232030  40.6153590  84.1064020
  42.7967250  41.1396210  83.5029160  43.6663370  41.2480980  84.7373750
  36.4987650  48.6353230  85.2621400  35.9608740  49.3599290  84.9430100
  36.7521610  48.1583570  84.4718740  37.7512900  36.6037750  86.7877330
  38.3412590  36.2953600  87.4755150  36.9333140  36.1317500  86.9437230
  39.3549860  49.8704440  85.5208050  39.2808560  50.7739580  85.8280420
  38.4528700  49.5516340  85.4930120  37.7386150  34.0482200  71.5247810
  37.3908150  33.3706190  70.9450260  37.9398920  33.5871710  72.3391200
  31.2467360  48.0649620  81.5623300  30.8098350  48.2450420  82.3947450
  31.8145040  48.8224240  81.4205020  46.8829540  47.5666620  85.8500610
  46.2831530  47.6259180  85.1064530  47.0123440  46.6271600  85.9797460
  48.1230990  45.3084440  71.1870320  47.2923950  45.3761090  71.6577550
  48.3002820  46.1988560  70.8837180  45.5681180  44.2918600  83.9476770
  44.7541020  44.7215760  84.2102560  45.9755380  44.9037010  83.3345820
  32.1167720  40.9622420  82.4615520  32.4840760  40.8749820  83.3411540
  31.5478540  40.1988970  82.3622380  31.6683720  37.8731510  86.3673940
  30.7739770  37.8398270  86.7067650  32.2081270  38.0718300  87.1325190
  30.2929870  37.7868780  73.8637510  29.3893950  38.0498980  73.6889170
  30.7770490  38.0579950  73.0837470  32.4831240  32.8973650  70.8134540
  33.2059370  33.4382590  71.1315760  32.7555760  32.6237070  69.9376080
  32.1723430  32.1479840  80.7157160  32.8199620  31.5977220  80.2752320
  32.5925270  32.4022990  81.5372970  45.6257230  49.0437200  77.4745040
  46.2216300  48.7221770  76.7979460  45.8835380  48.5709020  78.2658310
  31.9255430  32.3035510  83.4582480  31.5770250  32.7599330  84.2240660
  31.5943130  31.4092640  83.5404910  33.5319800  45.4755110  87.6235670
  33.4889430  45.1048020  88.5050130  33.6630810  46.4132680  87.7637490
  37.2325830  47.0314700  83.2245390  36.9917190  47.2989260  82.3375910
  38.1728470  47.2020430  83.2796250  39.4380250  33.4947390  86.9801900
  39.3769140  34.0869220  87.7297310  40.3780630  33.3873350  86.8352160
  48.4929990  49.0509080  84.0256030  47.9988270  49.4477950  83.3083160
  47.8843280  48.4258290  84.4193310  32.5976070  31.8311710  86.7333250
  33.1459060  31.6499760  85.9699360  32.6631380  31.0405820  87.2689560
  33.3707830  48.4217360  84.7433450  32.7768150  48.2902060  85.4823490
  33.3631670  47.5855500  84.2775550  46.1769440  49.6932500  81.3042770
  45.7172410  50.4448310  80.9300790  45.5481900  48.9738970  81.2457570
  33.0020060  45.7875740  83.6941490  32.2754120  45.1681030  83.6267440
  33.0629210  46.1816350  82.8239570  36.6065160  48.0020740  80.4790900
  37.1230180  47.3908100  79.9539160  37.2562540  48.5049520  80.9701910
  39.3460660  48.8929230  81.3059880  39.6338470  48.6383530  80.4292890
  39.8583880  48.3406590  81.8965450  31.9078080  32.9366910  74.4070110
  32.6657440  33.0495790  73.8334140  31.4455250  33.7736110  74.3613540
  34.2803230  33.4630960  72.9472080  34.8095990  32.6760760  72.8180030
  34.9131550  34.1422150  73.1807610  36.4741070  33.2006100  76.0017470
  35.8443810  32.4993410  76.1687600  35.9346210  33.9610230  75.7850630
  39.4133020  49.8145330  88.6728080  40.3400330  49.5789600  88.7164040
  39.3983450  50.6417330  88.1914110  47.6478080  49.3570900  75.6702330
  47.8230270  48.6708640  75.0263250  46.9499650  49.8817950  75.2779000
  36.5996630  32.4790080  88.4369960  36.3180900  32.9823680  87.6730780
  36.9816330  31.6811830  88.0712090  43.2012090  31.8943660  89.0150430
  43.0877540  32.2138270  89.9101950  44.0181830  32.2956170  88.7187710
  45.9810580  49.0415190  88.4969120  46.7735900  48.5464420  88.2895080
  46.2743730  49.7205330  89.1044730  48.4598420  47.9670450  70.2988160
  48.9358140  48.4453340  70.9777240  49.0805580  47.8987940  69.5733660
  30.8629210  33.6465960  67.0336310  30.1487730  33.8462880  67.6388920
  31.2824250  32.8705530  67.4051110  43.5625240  48.5375290  68.3907270
  44.5146990  48.4533310  68.3407510  43.4153460  49.2017000  69.0641060
  31.9255430  32.3035510  64.6838990  31.5770250  32.7599330  65.4497170
  31.5943130  31.4092640  64.7661420  32.5976070  31.8311710  67.9589760
  33.1459060  31.6499760  67.1955870  32.6631380  31.0405820  68.4946070
  36.5996630  32.4790080  69.6626470  36.3180900  32.9823680  68.8987290
  36.9816330  31.6811830  69.2968600  34.5201220  35.1047580  32.9904630
  34.8227120  35.1115010  32.0823780  35.2595810  34.7545440  33.4872290
  48.1230990  45.3084440  33.6383340  47.2923950  45.3761090  34.1090570
  48.3002820  46.1988560  33.3350200  32.8357080  36.8434320  34.2244910
  33.5448780  36.4217540  33.7392190  32.1197020  36.9109550  33.5928260
  32.4831240  32.8973650  33.2647560  33.2059370  33.4382590  33.5828780
  32.7555760  32.6237070  32.3889100  40.4859020  48.3833350  22.1110580
  39.8670460  48.8390850  21.5405020  41.3410800  48.5384810  21.7100280
  34.8407450  35.5468350  19.4063990  34.9474200  36.4472080  19.7132750
  33.9299810  35.4986320  19.1158640  30.7205570  43.9529120  16.8782120
  30.3433550  44.4416220  16.1467020  30.9778640  44.6254400  17.5088650
  46.3450820  46.2268670  25.9129910  45.6614340  46.8967780  25.9046580
  46.8845110  46.4249320  25.1474770  38.3294500  32.3545510  22.3367630
  38.6369480  31.7992400  21.6203130  37.3995200  32.4889970  22.1540620
  43.8809560  48.0712800  24.6275090  43.8936720  47.6675090  23.7597350
  43.3284780  48.8460090  24.5236520  40.7044340  36.6911340  16.0694910
  39.7648010  36.8525300  16.1547370  41.0227600  37.4097020  15.5230900
  44.8799210  48.2058510  27.6809790  44.4029770  49.0130700  27.4882400
  44.1961000  47.5536840  27.8336000  41.0332630  46.1597520  20.5516990
  41.4728540  46.9021850  20.1372380  40.9719520  46.4024090  21.4755950
  46.5054390  32.4744260  14.8976790  46.1927050  32.5671090  15.7975860
  47.2666860  33.0525290  14.8474220  48.4598420  47.9670450  32.7501180
  48.9358140  48.4453340  33.4290260  49.0805580  47.8987940  32.0246680
  47.8631670  45.1583300  29.9101190  47.9894730  44.9195180  28.9918370
  47.9053050  44.3267840  30.3823270  43.7002810  49.1466640  17.9080000
  43.5403950  48.8569580  18.8061830  43.5349520  48.3706770  17.3725230
  36.1791190  48.9265170  19.6851620  36.0033670  48.0100710  19.4719420
  35.3246930  49.2852460  19.9249420  43.4028940  46.6554200  16.4678000
  42.7094100  46.6531490  15.8080280  44.1451800  46.2313520  16.0372170
  42.9678870  48.2816910  20.5426490  43.4235820  47.5006290  20.8565110
  43.3071390  48.9923730  21.0867670  35.4900190  33.1839130  22.7377800
  35.0468340  33.9648670  22.4062320  36.0485180  33.5069020  23.4448740
  38.6059010  32.8049830  17.6183630  37.9813190  32.8009700  18.3436940
  38.5189130  31.9380790  17.2219600  37.5276090  33.7286460  24.5967400
  37.8248420  34.6349290  24.5159420  38.0761650  33.2405240  23.9826970
  30.3411440  37.4820530  14.5285900  30.2586110  38.4251290  14.6700890
  29.9894500  37.3395440  13.6498250  38.1409570  36.2159560  23.5956250
  38.1445630  35.7749510  22.7460790  39.0360690  36.5376890  23.7028070
  33.9911950  36.0986050  22.5550460  33.6512000  36.5761280  23.3117510
  33.2289270  35.6451170  22.1951560  38.2029720  37.2171640  16.5863010
  38.3242540  37.1758120  17.5348830  37.8178230  38.0795790  16.4309740
  37.2151220  39.5272780  15.9846310  36.6468120  39.0791030  15.3582220
  37.9240220  39.8865560  15.4511460  34.7598700  43.5230970  18.2572720
  33.9860960  42.9828590  18.0971440  35.4893330  43.0037580  17.9190480
  40.9796620  33.9134290  18.1928500  40.1661230  33.4147460  18.1173810
  40.7858570  34.7532540  17.7764850  46.9946530  46.4508040  18.6852650
  46.3522690  45.7963660  18.9596370  46.6077190  46.8563130  17.9093320
  38.6596290  44.5391160  19.9394750  39.3467420  45.0860370  20.3202340
  37.8728710  45.0831890  19.9744360  30.7988690  40.1563980  15.4311830
  31.6683540  40.4388780  15.7147750  30.3079010  40.9699850  15.3160640
  33.8635280  31.8874840  20.0242630  33.7349910  31.8792740  20.9727550
  33.0397300  32.2257930  19.6733640  45.3843910  45.3424500  15.2229000
  45.1581490  44.6254940  15.8153640  44.9940110  45.0936940  14.3850750
  31.1659940  49.3691360  15.9973460  31.5257580  49.9680700  15.3430730
  31.0252280  49.9151250  16.7708490  37.1828560  46.7522560  16.8147130
  37.1738660  47.4852250  16.1991640  36.2626920  46.5054140  16.9074090
  45.7230020  35.0945210  18.0438340  45.0943180  35.1990880  17.3296570
  45.2281940  35.3141990  18.8332220  40.1688160  46.8150800  15.4772320
  40.2700140  46.6114790  14.5474300  39.2689900  46.5609080  15.6820100
  37.6914050  37.3731160  19.4596220  36.9830200  37.8417500  19.9009830
  37.9758530  36.7153170  20.0941410  38.8106270  49.3337120  20.1719990
  39.0647770  49.2958510  19.2499360  37.8618750  49.2070450  20.1648240
  35.8949070  35.6816240  16.8346930  36.7439600  36.1186390  16.7687120
  35.5280340  35.9936500  17.6618990  34.7940490  41.9348600  15.3082460
  35.5603760  41.8229960  15.8707890  34.8715180  41.2386570  14.6559230
  33.4887250  39.3673670  15.9915350  33.5690840  38.4201180  16.1032750
  34.3807000  39.6980550  16.0976010  46.8184430  47.4237850  23.4232760
  46.9431850  48.2469020  23.8956570  47.6849990  47.2128580  23.0756910
  34.2901960  49.5169060  23.0949890  35.0264440  48.9684520  23.3658460
  34.6742880  50.3825070  22.9555880  31.1747440  45.5842630  18.9691400
  30.2487220  45.8263770  18.9596810  31.6403870  46.4116890  18.8476150
  37.4004270  48.6899370  14.9175460  38.1932880  48.9788200  14.4657250
  36.8808620  48.2591540  14.2387940  46.4534440  47.9169500  16.3412200
  46.1675950  47.5034640  15.5266380  46.2553990  48.8457210  16.2212720
  37.9181670  43.9102780  14.7817810  37.8132310  43.2955130  15.5079190
  37.7505890  43.3868670  13.9980820  41.1584400  42.9722810  15.3859800
  40.6094500  43.4192110  16.0302540  41.7803660  42.4672060  15.9097470
  36.8259520  41.9313730  17.2825100  37.2475940  41.7653600  18.1256490
  36.9510360  41.1213960  16.7880240  39.3387160  40.9551340  14.5302200
  39.8592820  40.2400360  14.1643350  39.9855560  41.5937210  14.8302710
  35.7218420  38.0046960  14.2283260  35.5207480  37.1414320  14.5896600
  35.5510470  37.9180320  13.2904860  43.2006730  32.8155190  16.7570140
  43.4809020  31.9723090  17.1129560  42.4272460  33.0478300  17.2708890
  34.5201220  35.1047580  14.2161140  34.8227120  35.1115010  13.3080290
  35.2595810  34.7545440  14.7128800  37.7386150  34.0482200  15.2017340
  37.3908150  33.3706190  14.6219790  37.9398920  33.5871710  16.0160730
  39.9035190  49.0362950  16.8203940  40.7985980  49.3747920  16.8422700
  39.9352820  48.3142360  16.1928220  33.5431350  44.4090000  15.0490940
  33.9806220  44.9519670  15.7048520  34.0279080  43.5836950  15.0587280
  35.3539070  45.5288040  20.1613170  35.0534610  45.4053010  21.0617080
  35.2476560  44.6696630  19.7528900  46.8829540  47.5666620  29.5270140
  46.2831530  47.6259180  28.7834060  47.0123440  46.6271600  29.6566990
  48.1230990  45.3084440  14.8639850  47.2923950  45.3761090  15.3347080
  48.3002820  46.1988560  14.5606710  44.0282230  35.3711140  15.8200200
  44.4467110  35.1842120  14.9796860  43.7218290  34.5190190  16.1303130
  32.8357080  36.8434320  15.4501420  33.5448780  36.4217540  14.9648700
  32.1197020  36.9109550  14.8184770  32.4831240  32.8973650  14.4904070
  33.2059370  33.4382590  14.8085290  32.7555760  32.6237070  13.6145610
  48.6100320  34.2334990  14.5319470  49.5349630  34.1016170  14.3237760
  48.5876110  34.3127810  15.4855920  45.6257230  49.0437200  21.1514570
  46.2216300  48.7221770  20.4748990  45.8835380  48.5709020  21.9427840
  48.4929990  49.0509080  27.7025560  47.9988270  49.4477950  26.9852690
  47.8843280  48.4258290  28.0962840  46.1769440  49.6932500  24.9812300
  45.7172410  50.4448310  24.6070320  45.5481900  48.9738970  24.9227100
  31.2850060  49.1050130  20.5807780  31.1172100  48.4720810  21.2789670
  30.4184570  49.3109530  20.2301970  31.9078080  32.9366910  18.0839640
  32.6657440  33.0495790  17.5103670  31.4455250  33.7736110  18.0383070
  38.4491890  35.0506180  21.0741950  37.6366400  34.6763070  20.7337830
  38.9533530  34.2951260  21.3763140  46.0951470  32.1170190  17.5865300
  46.2902100  33.0153640  17.8532730  45.3081340  31.8857270  18.0798250
  32.8912760  47.7983360  18.0257920  32.3660380  48.1791390  17.3219880
  32.8157340  48.4234130  18.7467630  34.2803230  33.4630960  16.6241610
  34.8095990  32.6760760  16.4949560  34.9131550  34.1422150  16.8577140
  36.4741070  33.2006100  19.6787000  35.8443810  32.4993410  19.8457130
  35.9346210  33.9610230  19.4620160  47.6478080  49.3570900  19.3471860
  47.8230270  48.6708640  18.7032780  46.9499650  49.8817950  18.9548530
  36.5996630  32.4790080  32.1139490  36.3180900  32.9823680  31.3500310
  36.9816330  31.6811830  31.7481620  35.4905730  49.7465740  16.9007170
  36.2224550  49.4625020  16.3531060  35.7499400  49.5079020  17.7906550
  34.6520520  45.8630470  16.9053500  34.0229400  46.3315570  17.4539330
  34.7668350  45.0179690  17.3399690  42.1070240  39.9136130   3.0554700
  42.0264290  38.9990740   2.7846410  41.6934660  40.4103200   2.3494410
  40.2388280  41.6915150   4.9363970  39.4630380  41.2115590   5.2262540
  40.8901210  41.0120800   4.7620130  34.2554110  42.0034960   5.8139730
  33.4238990  41.7483670   6.2136240  34.8635090  42.0745730   6.5497650
  44.2595710  46.0975340   3.7163100  43.7977240  45.3262580   4.0450270
  45.0721260  46.1241410   4.2215550  34.2355370  46.0375050   6.0097750
  34.5383410  45.1472790   5.8307970  34.9798960  46.5945270   5.7820000
  30.6279070  39.5642500   5.4821820  31.1995180  38.7964700   5.4825460
  30.6280610  39.8631260   4.5728430  40.4859020  48.3833350   3.3367090
  39.8670460  48.8390850   2.7661530  41.3410800  48.5384810   2.9356790
  39.6797270  44.3672340   4.9434130  39.6105550  43.4262280   4.7823260
  40.4417130  44.4573750   5.5156700  31.8703940  34.9726860   7.2690750
  31.6906780  34.0752610   7.5493510  31.4684020  35.5198730   7.9437700
  40.7102440  37.1742720   5.1703060  41.0867260  36.3014600   5.0576730
  40.6121950  37.5101420   4.2793500  44.4926560  34.6693160   2.1031400
  45.3136180  34.1789730   2.1456880  44.5260640  35.2590820   2.8563240
  32.4890610  37.4687360   5.8773090  33.1700720  37.7325730   6.4960490
  32.1738660  36.6288230   6.2111100  36.6815180  38.5154720   4.9645680
  37.1893400  39.0135690   5.6050700  37.2128420  37.7389920   4.7885040
  48.7826110  36.6859910   8.6675030  48.0778280  37.0741620   8.1490140
  49.0484030  37.3810200   9.2695960  34.9651280  33.1553280   9.2309100
  34.9669720  33.6725670   8.4255000  34.1355590  32.6783460   9.2079030
  36.2154130  42.7948460   7.4082600  35.8823510  43.4217380   8.0503670
  36.3920810  43.3210340   6.6284270  44.7288040  36.6093540   4.8758940
  44.0243610  36.8978430   5.4562050  45.0900200  37.4193650   4.5158500
  34.6466610  34.8663240   7.2379550  34.9883420  35.7105290   6.9433420
  33.7082420  35.0146980   7.3544890  35.4273230  44.7629260   9.2231780
  36.0447230  45.4380340   8.9416230  34.5666350  45.1717240   9.1319280
  46.3450820  46.2268670   7.1386420  45.6614340  46.8967780   7.1303090
  46.8845110  46.4249320   6.3731280  47.7974960  36.0548330   5.2668150
  46.8499870  36.0887310   5.3983580  48.1224950  36.8687280   5.6517510
  38.3294500  32.3545510   3.5624140  38.6369480  31.7992400   2.8459640
  37.3995200  32.4889970   3.3797130  43.8809560  48.0712800   5.8531600
  43.8936720  47.6675090   4.9853860  43.3284780  48.8460090   5.7493030
  43.2795000  42.9742640   7.1814210  43.6963790  42.7602750   6.3467670
  44.0034820  43.2315430   7.7522830  47.2257100  41.3729860   7.2730450
  46.3975730  41.4422950   6.7980580  47.8207580  41.9584170   6.8046280
  44.1899110  38.1599180   8.2185320  43.7770290  38.9852890   8.4725310
  43.4575060  37.5744220   8.0261680  36.3231900  40.9459080   3.0803990
  35.9188900  40.2336330   2.5849890  36.4095020  40.6012320   3.9692030
  36.7913600  44.6326640   5.2443200  36.4941890  44.0272110   4.5650980
  37.7413420  44.6703950   5.1332560  35.0360520  37.7202290   6.8603030
  35.5875110  37.8297630   6.0856280  35.5504030  38.0939890   7.5758260
  44.8799210  48.2058510   8.9066300  44.4029770  49.0130700   8.7138910
  44.1961000  47.5536840   9.0592510  35.8832030  44.3708330  11.8951000
  34.9860560  44.5948300  12.1424400  35.9084900  44.4943270  10.9462400
  34.7103250  41.2421650  10.4708370  34.5711020  42.1144450  10.8395770
  33.8284610  40.8994460  10.3256310  36.5083600  47.1843350  12.6793520
  36.4799030  47.5886300  11.8121950  36.3448570  46.2553710  12.5165120
  48.4598420  47.9670450  13.9757690  48.9358140  48.4453340  14.6546770
  49.0805580  47.8987940  13.2503190  30.6621900  43.0119200   6.3879280
  30.7402320  43.1467970   5.4435000  31.2763580  42.3035090   6.5807400
  31.9069530  44.7119390   2.7985460  31.4997610  44.8533980   1.9439060
  32.7982540  44.4279550   2.5956670  47.8631670  45.1583300  11.1357700
  47.9894730  44.9195180  10.2174880  47.9053050  44.3267840  11.6079780
  41.7248410  48.8611300   9.7052510  42.2393080  48.7719310  10.5074940
  40.8817490  49.2071000   9.9980420  42.9678870  48.2816910   1.7683000
  43.4235820  47.5006290   2.0821620  43.3071390  48.9923730   2.3124180
  47.7155680  37.2115760  12.1007440  47.0999950  37.7195430  11.5722900
  47.3952100  36.3114090  12.0433380  30.7181420  44.0533370   8.9273740
  30.8812460  43.5838730   8.1093110  31.1833870  43.5456930   9.5922580
  35.4900190  33.1839130   3.9634310  35.0468340  33.9648670   3.6318830
  36.0485180  33.5069020   4.6705250  39.7770000  36.0507650   9.5669630
  39.3149370  36.2590670  10.3789570  39.3748110  35.2367000   9.2640300
  44.7774510  37.2716600  10.6966290  43.9268100  36.9722350  11.0175360
  44.6176300  37.5158610   9.7850110  41.8724220  38.7718350  12.7965080
  42.1977630  37.9382100  12.4567310  42.6604550  39.2946870  12.9443410
  37.5276090  33.7286460   5.8223910  37.8248420  34.6349290   5.7415930
  38.0761650  33.2405240   5.2083480  37.7213620  39.2058280  12.3575830
  37.6257220  38.2653010  12.2076230  38.5645600  39.4273350  11.9623900
  32.8524160  35.6171950  10.5109610  32.4587550  36.4647160  10.7182390
  32.1642560  34.9798320  10.7018250  39.4269210  35.7006920  13.5806350
  38.7367530  35.5079120  14.2152440  40.1701510  35.9841560  14.1130650
  30.1541210  33.5400410   4.5439690  29.8654260  34.1103270   5.2564670
  30.8986970  33.0604860   4.9070920  41.7032180  39.5405360   6.4160270
  40.9713300  40.0492170   6.7650370  41.3056520  38.7235340   6.1149050
  38.1409570  36.2159560   4.8212760  38.1445630  35.7749510   3.9717300
  39.0360690  36.5376890   4.9284580  33.9911950  36.0986050   3.7806970
  33.6512000  36.5761280   4.5374020  33.2289270  35.6451170   3.4208070
  42.1658090  34.9939040   5.8283210  42.1830830  35.4447690   6.6725060
  41.9173670  34.0944680   6.0416650  45.5928840  32.4071220  11.6669590
  45.9174610  31.6760880  12.1927570  45.6285350  32.0884860  10.7650580
  32.2920400  43.4284800  11.0869550  31.9075190  42.7878470  11.6852510
  32.6032590  44.1320920  11.6564280  38.4417540  40.2761340   6.5678170
  38.8087670  39.8019910   7.3139510  38.2522600  41.1502910   6.9086510
  31.3058030  35.0205030   2.6971640  31.0204950  34.6560700   3.5350260
  31.2436890  34.2885490   2.0834780  36.2316910  39.3169980   8.8862380
  35.9273980  40.1961960   9.1112740  37.1863370  39.3769770   8.9219820
  45.5186680  42.5196330   5.2755620  46.2385800  43.0151620   4.8851730
  45.3168500  41.8414220   4.6309490  40.9005480  42.5905390  11.1624620
  40.8342790  41.6701060  10.9082210  40.2710620  42.6880830  11.8769260
  34.8036100  43.1911350   3.1208040  35.3214770  42.3879610   3.0664930
  34.3520120  43.1290490   3.9624870  32.2880640  40.1572720  10.0333740
  31.9295580  40.8226570  10.6207080  31.9935200  39.3256270  10.4046360
  35.4893760  40.6156960  12.9173290  35.1893900  40.7614140  12.0201110
  36.2605000  40.0562250  12.8246680  40.8322210  45.4125960  10.9128420
  40.8466750  44.4806920  10.6947330  40.1247310  45.4985720  11.5518190
  47.0433420  42.0533300  10.2597000  46.3181610  42.6462080  10.0626390
  47.5708880  42.0456840   9.4610370  42.5733010  43.7793470   3.7580850
  42.9256830  43.1821600   3.0982220  41.6895340  43.4537700   3.9289100
  40.2656110  47.0543530   8.0068920  40.9098330  47.2602910   8.6842340
  40.6285550  46.2931930   7.5539770  41.5388190  45.0575880   6.7246370
  42.1810420  44.3569040   6.8378540  42.0637540  45.8374320   6.5443260
  43.3125810  45.8570780   9.9282430  43.6482050  46.4437470  10.6060350
  42.3926150  45.7263490  10.1580220  30.8629210  33.6465960  10.7105840
  30.1487730  33.8462880  11.3158450  31.2824250  32.8705530  11.0820640
  31.1501800  47.6346220  11.6972370  31.2592920  46.6940960  11.5567760
  30.4982360  47.9000970  11.0486100  39.1414390  45.9062110  13.0970490
  38.8211260  45.1871350  13.6416180  38.4672750  46.5817180  13.1706550
  42.3567990  36.1388270   8.4607290  42.7248810  35.3183480   8.7886860
  41.4966190  36.1990160   8.8762940  39.3169980  38.7927860   8.6845260
  39.8155230  39.2673680   9.3497110  39.4592930  37.8691380   8.8915290
  46.5236840  35.0095820   9.5273650  46.0210440  35.7501220   9.8667460
  47.3393500  35.3979820   9.2110440  44.8158850  40.2529000   2.9735010
  43.8748990  40.2679230   3.1482700  45.1302920  39.4664960   3.4195310
  46.8184430  47.4237850   4.6489270  46.9431850  48.2469020   5.1213080
  47.6849990  47.2128580   4.3013420  34.2901960  49.5169060   4.3206400
  35.0264440  48.9684520   4.5914970  34.6742880  50.3825070   4.1812390
  33.2960240  48.7015130  13.5091980  34.0972970  49.0227180  13.9227380
  32.7812060  48.3410710  14.2311890  42.1324870  44.8095000  13.4567390
  41.5263030  44.8326600  12.7163140  41.8278980  44.0778040  13.9934640
  43.5625240  48.5375290  12.0676800  44.5146990  48.4533310  12.0177040
  43.4153460  49.2017000  12.7410590  31.0158050  41.1888590  12.4528030
  31.5197070  40.6095870  13.0244260  30.2765470  41.4728820  12.9904400
  38.0695990  42.5959580  11.9863550  37.3041660  43.1644580  11.9018220
  38.2511950  42.3035790  11.0931780  45.2119340  44.3264910  12.5438570
  45.9528810  44.6640670  12.0406030  44.4492020  44.4956970  11.9908340
  33.0481130  39.3318180  13.3478100  33.0886470  39.0332050  14.2563330
  33.9026630  39.7325790  13.1885620  34.9886940  37.9110280  11.3152590
  34.4583400  37.4201230  10.6875930  35.6575010  38.3394480  10.7810520
  43.8865000  42.3779740  11.0793780  44.3006020  42.5324820  11.9284200
  42.9516000  42.5034960  11.2419560  44.3587170  39.7175900  13.0832930
  44.9407940  38.9628220  12.9953410  44.5348940  40.2483340  12.3064410
  35.4759240  34.8772650  11.3949880  35.3816110  34.2593400  10.6700750
  34.8956630  35.6038940  11.1679790  38.2420680  33.4345890   8.4277270
  37.7937980  33.4570150   7.5822820  37.6085880  33.0364910   9.0247570
  38.6480230  42.3300220   9.0489710  39.0668340  43.1732950   8.8765950
  37.7288860  42.4672260   8.8196490  40.9844130  40.0616400  10.4327550
  41.1040340  39.4657540  11.1722390  41.8438130  40.0986090  10.0128850
  43.3232030  40.6153590   9.0090060  42.7967250  41.1396210   8.4055200
  43.6663370  41.2480980   9.6399790  36.4987650  48.6353230  10.1647440
  35.9608740  49.3599290   9.8456140  36.7521610  48.1583570   9.3744780
  37.7512900  36.6037750  11.6903370  38.3412590  36.2953600  12.3781190
  36.9333140  36.1317500  11.8463270  42.5706330  36.2203560  11.9236390
  41.8821850  35.5585100  11.8586380  43.2912350  35.7741830  12.3684850
  39.3549860  49.8704440  10.4234090  39.2808560  50.7739580  10.7306460
  38.4528700  49.5516340  10.3956160  30.7577150  47.1979030   3.7267710
  31.0880160  46.3300090   3.4946350  31.1868150  47.4037550   4.5572670
  31.2467360  48.0649620   6.4649340  30.8098350  48.2450420   7.2973490
  31.8145040  48.8224240   6.3231060  46.8829540  47.5666620  10.7526650
  46.2831530  47.6259180  10.0090570  47.0123440  46.6271600  10.8823500
  31.0791790  40.5769850   2.8238220  30.4240630  40.3081490   2.1797920
  31.9169740  40.4674330   2.3740200  48.5847420  42.9082020   3.4372490
  48.9556250  42.1249340   3.0308460  49.2249350  43.5971120   3.2589790
  45.5681180  44.2918600   8.8502810  44.7541020  44.7215760   9.1128600
  45.9755380  44.9037010   8.2371860  32.1167720  40.9622420   7.3641560
  32.4840760  40.8749820   8.2437580  31.5478540  40.1988970   7.2648420
  46.9171580  39.4306800  10.3772030  46.6857670  39.2019550   9.4769980
  47.1776130  40.3506350  10.3316920  31.6683720  37.8731510  11.2699980
  30.7739770  37.8398270  11.6093690  32.2081270  38.0718300  12.0351230
  45.3559650  34.6563230  13.1551730  46.2329830  34.6646630  13.5385730
  45.3680490  33.9194070  12.5444080  46.8022920  38.5092770   4.0439750
  47.3260400  38.0155420   3.4129920  47.3882340  38.6443130   4.7887320
  46.9812640  38.5932640   7.5659300  46.0315350  38.5596180   7.6804290
  47.1625650  39.5032750   7.3309070  32.1723430  32.1479840   5.6183200
  32.8199620  31.5977220   5.1778360  32.5925270  32.4022990   6.4399010
  47.7210050  36.4027070   2.5169840  47.6109330  36.2483110   3.4552110
  48.4817640  35.8748010   2.2745250  46.0675770  32.3421200   8.9752840
  46.7047990  32.9555340   9.3412030  46.2150660  32.3781860   8.0302070
  45.6257230  49.0437200   2.3771080  46.2216300  48.7221770   1.7005500
  45.8835380  48.5709020   3.1684350  31.9255430  32.3035510   8.3608520
  31.5770250  32.7599330   9.1266700  31.5943130  31.4092640   8.4430950
  33.5319800  45.4755110  12.5261710  33.4889430  45.1048020  13.4076170
  33.6630810  46.4132680  12.6663530  37.2325830  47.0314700   8.1271430
  36.9917190  47.2989260   7.2401950  38.1728470  47.2020430   8.1822290
  39.4380250  33.4947390  11.8827940  39.3769140  34.0869220  12.6323350
  40.3780630  33.3873350  11.7378200  42.0754810  33.1517450  11.5220230
  42.6895220  33.4696740  10.8601310  42.6204370  32.6666040  12.1416090
  48.4929990  49.0509080   8.9282070  47.9988270  49.4477950   8.2109200
  47.8843280  48.4258290   9.3219350  32.5976070  31.8311710  11.6359290
  33.1459060  31.6499760  10.8725400  32.6631380  31.0405820  12.1715600
  33.3707830  48.4217360   9.6459490  32.7768150  48.2902060  10.3849530
  33.3631670  47.5855500   9.1801590  42.8162850  31.7149590   7.8489520
  41.9422690  32.0484700   7.6462450  42.7073600  31.2422770   8.6741390
  43.7234830  33.9220460   9.2331240  43.3948190  33.1072220   8.8532970
  44.6717130  33.8790270   9.1096930  46.1769440  49.6932500   6.2068810
  45.7172410  50.4448310   5.8326830  45.5481900  48.9738970   6.1483610
  33.0020060  45.7875740   8.5967530  32.2754120  45.1681030   8.5293480
  33.0629210  46.1816350   7.7265610  36.6065160  48.0020740   5.3816940
  37.1230180  47.3908100   4.8565200  37.2562540  48.5049520   5.8727950
  39.3460660  48.8929230   6.2085920  39.6338470  48.6383530   5.3318930
  39.8583880  48.3406590   6.7991490  40.5637670  32.6319430   6.7882430
  39.7809460  33.1064930   7.0679190  40.2700600  31.7274260   6.6795610
  45.1158740  33.3342530   4.8331520  45.5566830  33.2787630   3.9853120
  44.8466330  34.2500540   4.9041700  46.9797310  32.9657770   2.8440340
  46.9185710  32.0218990   2.6971360  47.7589340  33.0737860   3.3893800
  38.4491890  35.0506180   2.2998460  37.6366400  34.6763070   1.9594340
  38.9533530  34.2951260   2.6019650  42.9516870  31.7148630   3.5381530
  43.5546240  32.2868840   4.0130050  42.2109860  32.2788070   3.3155430
  39.4133020  49.8145330  13.5754120  40.3400330  49.5789600  13.6190080
  39.3983450  50.6417330  13.0940150  36.5996630  32.4790080  13.3396000
  36.3180900  32.9823680  12.5756820  36.9816330  31.6811830  12.9738130
  43.2012090  31.8943660  13.9176470  43.0877540  32.2138270  14.8127990
  44.0181830  32.2956170  13.6213750  45.9810580  49.0415190  13.3995160
  46.7735900  48.5464420  13.1921120  46.2743730  49.7205330  14.0070770
  42.1070240  21.1392640  96.9272150  42.0264290  20.2247250  96.6563860
  41.6934660  21.6359710  96.2211860  40.2388280  22.9171660  98.8081420
  39.4630380  22.4372100  99.0979990  40.8901210  22.2377310  98.6337580
  34.2554110  23.2291470  99.6857180  33.4238990  22.9740180 100.0853690
  34.8635090  23.3002240 100.4215100  44.2595710  27.3231850  97.5880550
  43.7977240  26.5519090  97.9167720  45.0721260  27.3497920  98.0933000
  34.2355370  27.2631560  99.8815200  34.5383410  26.3729300  99.7025420
  34.9798960  27.8201780  99.6537450  32.6646060  18.1893360  93.4699570
  31.7762760  18.5309330  93.3679450  32.9487250  17.9893680  92.5780400
  30.6279070  20.7899010  99.3539270  31.1995180  20.0221210  99.3542910
  30.6280610  21.0887770  98.4445880  40.4859020  29.6089860  97.2084540
  39.8670460  30.0647360  96.6378980  41.3410800  29.7641320  96.8074240
  39.6797270  25.5928850  98.8151580  39.6105550  24.6518790  98.6540710
  40.4417130  25.6830260  99.3874150  40.7102440  18.3999230  99.0420510
  41.0867260  17.5271110  98.9294180  40.6121950  18.7357930  98.1510950
  34.8407450  16.7724860  94.5037950  34.9474200  17.6728590  94.8106710
  33.9299810  16.7242830  94.2132600  44.4926560  15.8949670  95.9748850
  45.3136180  15.4046240  96.0174330  44.5260640  16.4847330  96.7280690
  32.4890610  18.6943870  99.7490540  33.1700720  18.9582240 100.3677940
  32.1738660  17.8544740 100.0828550  36.6815180  19.7411230  98.8363130
  37.1893400  20.2392200  99.4768150  37.2128420  18.9646430  98.6602490
  41.3522370  24.4929100  94.6016450  40.7339640  24.9578550  94.0379170
  41.8645620  25.1856580  95.0185960  44.7288040  17.8350050  98.7476390
  44.0243610  18.1234940  99.3279500  45.0900200  18.6450160  98.3875950
  34.6466610  16.0919750 101.1097000  34.9883420  16.9361800 100.8150870
  33.7082420  16.2403490 101.2262340  30.7205570  25.1785630  91.9756080
  30.3433550  25.6672730  91.2440980  30.9778640  25.8510910  92.6062610
  46.3450820  27.4525180 101.0103870  45.6614340  28.1224290 101.0020540
  46.8845110  27.6505830 100.2448730  47.7974960  17.2804840  99.1385600
  46.8499870  17.3143820  99.2701030  48.1224950  18.0943790  99.5234960
  38.3294500  13.5802020  97.4341590  38.6369480  13.0248910  96.7177090
  37.3995200  13.7146480  97.2514580  43.8809560  29.2969310  99.7249050
  43.8936720  28.8931600  98.8571310  43.3284780  30.0716600  99.6210480
  45.1754980  26.0185530  94.8139220  45.0651310  25.0759860  94.9388640
  45.1723230  26.3801170  95.7001980  43.2795000  24.1999150 101.0531660
  43.6963790  23.9859260 100.2185120  44.0034820  24.4571940 101.6240280
  40.7175260  21.6450850  94.1701710  39.7904540  21.5788230  94.3990180
  40.8700080  22.5830980  94.0556950  40.7044340  17.9167850  91.1668870
  39.7648010  18.0781810  91.2521330  41.0227600  18.6353530  90.6204860
  47.2257100  22.5986370 101.1447900  46.3975730  22.6679460 100.6698030
  47.8207580  23.1840680 100.6763730  44.7472550  23.2071150  94.6736960
  44.1284970  22.8690700  94.0263260  44.7297000  22.5630910  95.3816150
  36.3231900  22.1715590  96.9521440  35.9188900  21.4592840  96.4567340
  36.4095020  21.8268830  97.8409480  36.7913600  25.8583150  99.1160650
  36.4941890  25.2528620  98.4368430  37.7413420  25.8960460  99.0050010
  35.0360520  18.9458800 100.7320480  35.5875110  19.0554140  99.9573730
  35.5504030  19.3196400 101.4475710  42.9237250  22.4457960  91.6809710
  43.3630530  21.6080390  91.5347530  43.6365670  23.0787360  91.7673850
  41.0332630  27.3854030  95.6490950  41.4728540  28.1278360  95.2346340
  40.9719520  27.6280600  96.5729910  46.5054390  13.7000770  89.9950750
  46.1927050  13.7927600  90.8949820  47.2666860  14.2781800  89.9448180
  33.0236530  21.0660570  94.4528090  32.9034130  21.7922660  93.8409360
  32.7137420  20.2963480  93.9756000  30.6621900  24.2375710 100.2596730
  30.7402320  24.3724480  99.3152450  31.2763580  23.5291600 100.4524850
  31.9069530  25.9375900  96.6702910  31.4997610  26.0790490  95.8156510
  32.7982540  25.6536060  96.4674120  43.7002810  30.3723150  93.0053960
  43.5403950  30.0826090  93.9035790  43.5349520  29.5963280  92.4699190
  36.1791190  30.1521680  94.7825580  36.0033670  29.2357220  94.5693380
  35.3246930  30.5108970  95.0223380  43.4028940  27.8810710  91.5651960
  42.7094100  27.8788000  90.9054240  44.1451800  27.4570030  91.1346130
  42.9678870  29.5073420  95.6400450  43.4235820  28.7262800  95.9539070
  43.3071390  30.2180240  96.1841630  35.4900190  14.4095640  97.8351760
  35.0468340  15.1905180  97.5036280  36.0485180  14.7325530  98.5422700
  38.6059010  14.0306340  92.7157590  37.9813190  14.0266210  93.4410900
  38.5189130  13.1637300  92.3193560  37.5276090  14.9542970  99.6941360
  37.8248420  15.8605800  99.6133380  38.0761650  14.4661750  99.0800930
  35.2814410  19.5329210  95.5633010  35.0555330  19.3166380  96.4679630
  34.5006940  19.9657670  95.2178980  42.5112170  19.5392580  94.1623660
  41.9121060  20.2628380  93.9787280  43.0591780  19.4769360  93.3800110
  41.1177040  18.1756120  96.1926940  41.5106610  18.4928320  95.3795630
  41.4793890  17.2968000  96.3071460  30.1541210  14.7656920  98.4157140
  29.8654260  15.3359780  99.1282120  30.8986970  14.2861370  98.7788370
  30.3411440  18.7077040  89.6259860  30.2586110  19.6507800  89.7674850
  29.9894500  18.5651950  88.7472210  41.7032180  20.7661870 100.2877720
  40.9713300  21.2748680 100.6367820  41.3056520  19.9491850  99.9866500
  38.1409570  17.4416070  98.6930210  38.1445630  17.0006020  97.8434750
  39.0360690  17.7633400  98.8002030  33.9911950  17.3242560  97.6524420
  33.6512000  17.8017790  98.4091470  33.2289270  16.8707680  97.2925520
  38.2029720  18.4428150  91.6836970  38.3242540  18.4014630  92.6322790
  37.8178230  19.3052300  91.5283700  42.1658090  16.2195550  99.7000660
  42.1830830  16.6704200 100.5442510  41.9173670  15.3201190  99.9134100
  37.2151220  20.7529290  91.0820270  36.6468120  20.3047540  90.4556180
  37.9240220  21.1122070  90.5485420  38.4417540  21.5017850 100.4395620
  38.8087670  21.0276420 101.1856960  38.2522600  22.3759420 100.7803960
  31.3058030  16.2461540  96.5689090  31.0204950  15.8817210  97.4067710
  31.2436890  15.5142000  95.9552230  34.7598700  24.7487480  93.3546680
  33.9860960  24.2085100  93.1945400  35.4893330  24.2294090  93.0164440
  45.5186680  23.7452840  99.1473070  46.2385800  24.2408130  98.7569180
  45.3168500  23.0670730  98.5026940  40.9796620  15.1390800  93.2902460
  40.1661230  14.6403970  93.2147770  40.7858570  15.9789050  92.8738810
  43.6945010  19.5110450  91.5864620  44.5824630  19.8227680  91.4115960
  43.6650100  18.6382700  91.1945200  34.8036100  24.4167860  96.9925490
  35.3214770  23.6136120  96.9382380  34.3520120  24.3547000  97.8342320
  39.6905600  25.6834140  92.2652790  40.0321300  26.4276370  91.7696110
  38.8618310  25.9965260  92.6277620  45.9659280  20.8222290  91.0544480
  45.8823000  21.2536510  90.2040920  46.6853470  21.2820640  91.4871300
  46.9946530  27.6764550  93.7826610  46.3522690  27.0220170  94.0570330
  46.6077190  28.0819640  93.0067280  42.5733010  25.0049980  97.6298300
  42.9256830  24.4078110  96.9699670  41.6895340  24.6794210  97.8006550
  38.6596290  25.7647670  95.0368710  39.3467420  26.3116880  95.4176300
  37.8728710  26.3088400  95.0718320  30.7988690  21.3820490  90.5285790
  31.6683540  21.6645290  90.8121710  30.3079010  22.1956360  90.4134600
  37.9623500  22.7693700  94.6494070  38.4186280  23.5798950  94.8754260
  37.6111710  22.4516840  95.4812560  33.8635280  13.1131350  95.1216590
  33.7349910  13.1049250  96.0701510  33.0397300  13.4514440  94.7707600
  41.5388190  26.2832390 100.5963820  42.1810420  25.5825550 100.7095990
  42.0637540  27.0630830 100.4160710  31.1659940  30.5947870  91.0947420
  31.5257580  31.1937210  90.4404690  31.0252280  31.1407760  91.8682450
  44.9660160  24.4852950  91.9817120  44.6781860  24.9465640  92.7695000
  45.7612330  24.0250720  92.2501340  37.1828560  27.9779070  91.9121090
  37.1738660  28.7108760  91.2965600  36.2626920  27.7310650  92.0048050
  32.7835200  23.1993960  92.6567850  32.1763150  23.9392860  92.6663150
  33.2584550  23.2893320  91.8306050  45.7230020  16.3201720  93.1412300
  45.0943180  16.4247390  92.4270530  45.2281940  16.5398500  93.9306180
  40.1688160  28.0407310  90.5746280  40.2700140  27.8371300  89.6448260
  39.2689900  27.7865590  90.7794060  37.6914050  18.5987670  94.5570180
  36.9830200  19.0674010  94.9983790  37.9758530  17.9409680  95.1915370
  41.7229480  15.3238330  95.9965970  41.5997260  15.3424460  95.0475480
  42.6714040  15.3717270  96.1164370  38.8106270  30.5593630  95.2693950
  39.0647770  30.5215020  94.3473320  37.8618750  30.4326960  95.2622200
  35.8949070  16.9072750  91.9320890  36.7439600  17.3442900  91.8661080
  35.5280340  17.2193010  92.7592950  44.8158850  21.4785510  96.8452460
  43.8748990  21.4935740  97.0200150  45.1302920  20.6921470  97.2912760
  34.7940490  23.1605110  90.4056420  35.5603760  23.0486470  90.9681850
  34.8715180  22.4643080  89.7533190  33.4887250  20.5930180  91.0889310
  33.5690840  19.6457690  91.2006710  34.3807000  20.9237060  91.1949970
  46.8184430  28.6494360  98.5206720  46.9431850  29.4725530  98.9930530
  47.6849990  28.4385090  98.1730870  34.2901960  30.7425570  98.1923850
  35.0264440  30.1941030  98.4632420  34.6742880  31.6081580  98.0529840
  31.1747440  26.8099140  94.0665360  30.2487220  27.0520280  94.0570770
  31.6403870  27.6373400  93.9450110  37.4004270  29.9155880  90.0149420
  38.1932880  30.2044710  89.5631210  36.8808620  29.4848050  89.3361900
  46.4534440  29.1426010  91.4386160  46.1675950  28.7291150  90.6240340
  46.2553990  30.0713720  91.3186680  37.9181670  25.1359290  89.8791770
  37.8132310  24.5211640  90.6053150  37.7505890  24.6125180  89.0954780
  41.1584400  24.1979320  90.4833760  40.6094500  24.6448620  91.1276500
  41.7803660  23.6928570  91.0071430  36.8259520  23.1570240  92.3799060
  37.2475940  22.9910110  93.2230450  36.9510360  22.3470470  91.8854200
  39.3387160  22.1807850  89.6276160  39.8592820  21.4656870  89.2617310
  39.9855560  22.8193720  89.9276670  35.7218420  19.2303470  89.3257220
  35.5207480  18.3670830  89.6870560  35.5510470  19.1436830  88.3878820
  43.2006730  14.0411700  91.8544100  43.4809020  13.1979600  92.2103520
  42.4272460  14.2734810  92.3682850  34.5201220  16.3304090  89.3135100
  34.8227120  16.3371520  88.4054250  35.2595810  15.9801950  89.8102760
  37.7386150  15.2738710  90.2991300  37.3908150  14.5962700  89.7193750
  37.9398920  14.8128220  91.1134690  39.9035190  30.2619460  91.9177900
  40.7985980  30.6004430  91.9396660  39.9352820  29.5398870  91.2902180
  33.5431350  25.6346510  90.1464900  33.9806220  26.1776180  90.8022480
  34.0279080  24.8093460  90.1561240  30.7577150  28.4235540  97.5985160
  31.0880160  27.5556600  97.3663800  31.1868150  28.6294060  98.4290120
  35.3539070  26.7544550  95.2587130  35.0534610  26.6309520  96.1591040
  35.2476560  25.8953140  94.8502860  31.2467360  29.2906130 100.3366790
  30.8098350  29.4706930 101.1690940  31.8145040  30.0480750 100.1948510
  47.5787450  23.2788430  92.4648010  48.3406360  23.8485080  92.5707700
  47.5941820  22.7115630  93.2356320  31.0791790  21.8026360  96.6955670
  30.4240630  21.5338000  96.0515370  31.9169740  21.6930840  96.2457650
  48.5847420  24.1338530  97.3089940  48.9556250  23.3505850  96.9025910
  49.2249350  24.8227630  97.1307240  44.0282230  16.5967650  90.9174160
  44.4467110  16.4098630  90.0770820  43.7218290  15.7446700  91.2277090
  47.5271960  21.5091790  94.6149960  47.1515560  20.7419720  94.1831250
  46.7975080  21.8914490  95.1024890  30.2929870  19.0125290  92.6381000
  29.3893950  19.2755490  92.4632660  30.7770490  19.2836460  91.8580960
  46.8022920  19.7349280  97.9157200  47.3260400  19.2411930  97.2847370
  47.3882340  19.8699640  98.6604770  46.9812640  19.8189150 101.4376750
  46.0315350  19.7852690 101.5521740  47.1625650  20.7289260 101.2026520
  32.8357080  18.0690830  90.5475380  33.5448780  17.6474050  90.0622660
  32.1197020  18.1366060  89.9158730  32.4831240  14.1230160  89.5878030
  33.2059370  14.6639100  89.9059250  32.7555760  13.8493580  88.7119570
  46.2922890  18.9922630  93.8549610  46.7882010  18.7593500  94.6398490
  46.0938960  18.1534470  93.4387250  32.1723430  13.3736350  99.4900650
  32.8199620  12.8233730  99.0495810  32.5925270  13.6279500 100.3116460
  47.7210050  17.6283580  96.3887290  47.6109330  17.4739620  97.3269560
  48.4817640  17.1004520  96.1462700  48.6100320  15.4591500  89.6293430
  49.5349630  15.3272680  89.4211720  48.5876110  15.5384320  90.5829880
  48.6838810  16.2302160  92.2550140  47.8890310  16.1647280  92.7843050
  48.8882090  17.1652800  92.2435490  45.6257230  30.2693710  96.2488530
  46.2216300  29.9478280  95.5722950  45.8835380  29.7965530  97.0401800
  46.1769440  30.9189010 100.0786260  45.7172410  31.6704820  99.7044280
  45.5481900  30.1995480 100.0201060  36.6065160  29.2277250  99.2534390
  37.1230180  28.6164610  98.7282650  37.2562540  29.7306030  99.7445400
  39.3460660  30.1185740 100.0803370  39.6338470  29.8640040  99.2036380
  39.8583880  29.5663100 100.6708940  40.5637670  13.8575940 100.6599880
  39.7809460  14.3321440 100.9396640  40.2700600  12.9530770 100.5513060
  45.1158740  14.5599040  98.7048970  45.5566830  14.5044140  97.8570570
  44.8466330  15.4757050  98.7759150  46.9797310  14.1914280  96.7157790
  46.9185710  13.2475500  96.5688810  47.7589340  14.2994370  97.2611250
  31.2850060  30.3306640  95.6781740  31.1172100  29.6977320  96.3763630
  30.4184570  30.5366040  95.3275930  31.9078080  14.1623420  93.1813600
  32.6657440  14.2752300  92.6077630  31.4455250  14.9992620  93.1357030
  38.4491890  16.2762690  96.1715910  37.6366400  15.9019580  95.8311790
  38.9533530  15.5207770  96.4737100  42.9516870  12.9405140  97.4098980
  43.5546240  13.5125350  97.8847500  42.2109860  13.5044580  97.1872880
  46.0951470  13.3426700  92.6839260  46.2902100  14.2410150  92.9506690
  45.3081340  13.1113780  93.1772210  32.8912760  29.0239870  93.1231880
  32.3660380  29.4047900  92.4193840  32.8157340  29.6490640  93.8441590
  34.2803230  14.6887470  91.7215570  34.8095990  13.9017270  91.5923520
  34.9131550  15.3678660  91.9551100  36.4741070  14.4262610  94.7760960
  35.8443810  13.7249920  94.9431090  35.9346210  15.1866740  94.5594120
  47.6478080  30.5827410  94.4445820  47.8230270  29.8965150  93.8006740
  46.9499650  31.1074460  94.0522490  35.4905730  30.9722250  91.9981130
  36.2224550  30.6881530  91.4505020  35.7499400  30.7335530  92.8880510
  34.6520520  27.0886980  92.0027460  34.0229400  27.5572080  92.5513290
  34.7668350  26.2436200  92.4373650  42.1070240  21.1392640  78.1528660
  42.0264290  20.2247250  77.8820370  41.6934660  21.6359710  77.4468370
  40.2388280  22.9171660  80.0337930  39.4630380  22.4372100  80.3236500
  40.8901210  22.2377310  79.8594090  34.2554110  23.2291470  80.9113690
  33.4238990  22.9740180  81.3110200  34.8635090  23.3002240  81.6471610
  44.2595710  27.3231850  78.8137060  43.7977240  26.5519090  79.1424230
  45.0721260  27.3497920  79.3189510  34.2355370  27.2631560  81.1071710
  34.5383410  26.3729300  80.9281930  34.9798960  27.8201780  80.8793960
  32.6646060  18.1893360  74.6956080  31.7762760  18.5309330  74.5935960
  32.9487250  17.9893680  73.8036910  30.6279070  20.7899010  80.5795780
  31.1995180  20.0221210  80.5799420  30.6280610  21.0887770  79.6702390
  39.6797270  25.5928850  80.0408090  39.6105550  24.6518790  79.8797220
  40.4417130  25.6830260  80.6130660  31.8703940  16.1983370  82.3664710
  31.6906780  15.3009120  82.6467470  31.4684020  16.7455240  83.0411660
  40.7102440  18.3999230  80.2677020  41.0867260  17.5271110  80.1550690
  40.6121950  18.7357930  79.3767460  34.8407450  16.7724860  75.7294460
  34.9474200  17.6728590  76.0363220  33.9299810  16.7242830  75.4389110
  44.4926560  15.8949670  77.2005360  45.3136180  15.4046240  77.2430840
  44.5260640  16.4847330  77.9537200  32.4890610  18.6943870  80.9747050
  33.1700720  18.9582240  81.5934450  32.1738660  17.8544740  81.3085060
  36.6815180  19.7411230  80.0619640  37.1893400  20.2392200  80.7024660
  37.2128420  18.9646430  79.8859000  48.7826110  17.9116420  83.7648990
  48.0778280  18.2998130  83.2464100  49.0484030  18.6066710  84.3669920
  34.9651280  14.3809790  84.3283060  34.9669720  14.8982180  83.5228960
  34.1355590  13.9039970  84.3052990  41.3522370  24.4929100  75.8272960
  40.7339640  24.9578550  75.2635680  41.8645620  25.1856580  76.2442470
  36.2154130  24.0204970  82.5056560  35.8823510  24.6473890  83.1477630
  36.3920810  24.5466850  81.7258230  44.7288040  17.8350050  79.9732900
  44.0243610  18.1234940  80.5536010  45.0900200  18.6450160  79.6132460
  34.6466610  16.0919750  82.3353510  34.9883420  16.9361800  82.0407380
  33.7082420  16.2403490  82.4518850  35.4273230  25.9885770  84.3205740
  36.0447230  26.6636850  84.0390190  34.5666350  26.3973750  84.2293240
  30.7205570  25.1785630  73.2012590  30.3433550  25.6672730  72.4697490
  30.9778640  25.8510910  73.8319120  46.3450820  27.4525180  82.2360380
  45.6614340  28.1224290  82.2277050  46.8845110  27.6505830  81.4705240
  47.7974960  17.2804840  80.3642110  46.8499870  17.3143820  80.4957540
  48.1224950  18.0943790  80.7491470  38.3294500  13.5802020  78.6598100
  38.6369480  13.0248910  77.9433600  37.3995200  13.7146480  78.4771090
  43.2795000  24.1999150  82.2788170  43.6963790  23.9859260  81.4441630
  44.0034820  24.4571940  82.8496790  40.7175260  21.6450850  75.3958220
  39.7904540  21.5788230  75.6246690  40.8700080  22.5830980  75.2813460
  40.7044340  17.9167850  72.3925380  39.7648010  18.0781810  72.4777840
  41.0227600  18.6353530  71.8461370  47.2257100  22.5986370  82.3704410
  46.3975730  22.6679460  81.8954540  47.8207580  23.1840680  81.9020240
  44.7472550  23.2071150  75.8993470  44.1284970  22.8690700  75.2519770
  44.7297000  22.5630910  76.6072660  44.1899110  19.3855690  83.3159280
  43.7770290  20.2109400  83.5699270  43.4575060  18.8000730  83.1235640
  36.3231900  22.1715590  78.1777950  35.9188900  21.4592840  77.6823850
  36.4095020  21.8268830  79.0665990  36.7913600  25.8583150  80.3417160
  36.4941890  25.2528620  79.6624940  37.7413420  25.8960460  80.2306520
  35.0360520  18.9458800  81.9576990  35.5875110  19.0554140  81.1830240
  35.5504030  19.3196400  82.6732220  35.8832030  25.5964840  86.9924960
  34.9860560  25.8204810  87.2398360  35.9084900  25.7199780  86.0436360
  42.9237250  22.4457960  72.9066220  43.3630530  21.6080390  72.7604040
  43.6365670  23.0787360  72.9930360  34.7103250  22.4678160  85.5682330
  34.5711020  23.3400960  85.9369730  33.8284610  22.1250970  85.4230270
  41.0332630  27.3854030  76.8747460  41.4728540  28.1278360  76.4602850
  40.9719520  27.6280600  77.7986420  36.5083600  28.4099860  87.7767480
  36.4799030  28.8142810  86.9095910  36.3448570  27.4810220  87.6139080
  46.5054390  13.7000770  71.2207260  46.1927050  13.7927600  72.1206330
  47.2666860  14.2781800  71.1704690  33.0236530  21.0660570  75.6784600
  32.9034130  21.7922660  75.0665870  32.7137420  20.2963480  75.2012510
  30.6621900  24.2375710  81.4853240  30.7402320  24.3724480  80.5408960
  31.2763580  23.5291600  81.6781360  31.9069530  25.9375900  77.8959420
  31.4997610  26.0790490  77.0413020  32.7982540  25.6536060  77.6930630
  41.7248410  30.0867810  84.8026470  42.2393080  29.9975820  85.6048900
  40.8817490  30.4327510  85.0954380  36.1791190  30.1521680  76.0082090
  36.0033670  29.2357220  75.7949890  35.3246930  30.5108970  76.2479890
  47.7155680  18.4372270  87.1981400  47.0999950  18.9451940  86.6696860
  47.3952100  17.5370600  87.1407340  30.7181420  25.2789880  84.0247700
  30.8812460  24.8095240  83.2067070  31.1833870  24.7713440  84.6896540
  35.4900190  14.4095640  79.0608270  35.0468340  15.1905180  78.7292790
  36.0485180  14.7325530  79.7679210  39.7770000  17.2764160  84.6643590
  39.3149370  17.4847180  85.4763530  39.3748110  16.4623510  84.3614260
  44.7774510  18.4973110  85.7940250  43.9268100  18.1978860  86.1149320
  44.6176300  18.7415120  84.8824070  41.8724220  19.9974860  87.8939040
  42.1977630  19.1638610  87.5541270  42.6604550  20.5203380  88.0417370
  38.6059010  14.0306340  73.9414100  37.9813190  14.0266210  74.6667410
  38.5189130  13.1637300  73.5450070  37.5276090  14.9542970  80.9197870
  37.8248420  15.8605800  80.8389890  38.0761650  14.4661750  80.3057440
  35.2814410  19.5329210  76.7889520  35.0555330  19.3166380  77.6936140
  34.5006940  19.9657670  76.4435490  42.5112170  19.5392580  75.3880170
  41.9121060  20.2628380  75.2043790  43.0591780  19.4769360  74.6056620
  37.7213620  20.4314790  87.4549790  37.6257220  19.4909520  87.3050190
  38.5645600  20.6529860  87.0597860  41.1177040  18.1756120  77.4183450
  41.5106610  18.4928320  76.6052140  41.4793890  17.2968000  77.5327970
  32.8524160  16.8428460  85.6083570  32.4587550  17.6903670  85.8156350
  32.1642560  16.2054830  85.7992210  39.4269210  16.9263430  88.6780310
  38.7367530  16.7335630  89.3126400  40.1701510  17.2098070  89.2104610
  30.1541210  14.7656920  79.6413650  29.8654260  15.3359780  80.3538630
  30.8986970  14.2861370  80.0044880  30.3411440  18.7077040  70.8516370
  30.2586110  19.6507800  70.9931360  29.9894500  18.5651950  69.9728720
  41.7032180  20.7661870  81.5134230  40.9713300  21.2748680  81.8624330
  41.3056520  19.9491850  81.2123010  38.1409570  17.4416070  79.9186720
  38.1445630  17.0006020  79.0691260  39.0360690  17.7633400  80.0258540
  33.9911950  17.3242560  78.8780930  33.6512000  17.8017790  79.6347980
  33.2289270  16.8707680  78.5182030  38.2029720  18.4428150  72.9093480
  38.3242540  18.4014630  73.8579300  37.8178230  19.3052300  72.7540210
  42.1658090  16.2195550  80.9257170  42.1830830  16.6704200  81.7699020
  41.9173670  15.3201190  81.1390610  37.2151220  20.7529290  72.3076780
  36.6468120  20.3047540  71.6812690  37.9240220  21.1122070  71.7741930
  45.5928840  13.6327730  86.7643550  45.9174610  12.9017390  87.2901530
  45.6285350  13.3141370  85.8624540  32.2920400  24.6541310  86.1843510
  31.9075190  24.0134980  86.7826470  32.6032590  25.3577430  86.7538240
  38.4417540  21.5017850  81.6652130  38.8087670  21.0276420  82.4113470
  38.2522600  22.3759420  82.0060470  31.3058030  16.2461540  77.7945600
  31.0204950  15.8817210  78.6324220  31.2436890  15.5142000  77.1808740
  36.2316910  20.5426490  83.9836340  35.9273980  21.4218470  84.2086700
  37.1863370  20.6026280  84.0193780  34.7598700  24.7487480  74.5803190
  33.9860960  24.2085100  74.4201910  35.4893330  24.2294090  74.2420950
  45.5186680  23.7452840  80.3729580  46.2385800  24.2408130  79.9825690
  45.3168500  23.0670730  79.7283450  40.9796620  15.1390800  74.5158970
  40.1661230  14.6403970  74.4404280  40.7858570  15.9789050  74.0995320
  40.9005480  23.8161900  86.2598580  40.8342790  22.8957570  86.0056170
  40.2710620  23.9137340  86.9743220  43.6945010  19.5110450  72.8121130
  44.5824630  19.8227680  72.6372470  43.6650100  18.6382700  72.4201710
  34.8036100  24.4167860  78.2182000  35.3214770  23.6136120  78.1638890
  34.3520120  24.3547000  79.0598830  32.2880640  21.3829230  85.1307700
  31.9295580  22.0483080  85.7181040  31.9935200  20.5512780  85.5020320
  35.4893760  21.8413470  88.0147250  35.1893900  21.9870650  87.1175070
  36.2605000  21.2818760  87.9220640  40.8322210  26.6382470  86.0102380
  40.8466750  25.7063430  85.7921290  40.1247310  26.7242230  86.6492150
  45.9659280  20.8222290  72.2800990  45.8823000  21.2536510  71.4297430
  46.6853470  21.2820640  72.7127810  47.0433420  23.2789810  85.3570960
  46.3181610  23.8718590  85.1600350  47.5708880  23.2713350  84.5584330
  42.5733010  25.0049980  78.8554810  42.9256830  24.4078110  78.1956180
  41.6895340  24.6794210  79.0263060  38.6596290  25.7647670  76.2625220
  39.3467420  26.3116880  76.6432810  37.8728710  26.3088400  76.2974830
  30.7988690  21.3820490  71.7542300  31.6683540  21.6645290  72.0378220
  30.3079010  22.1956360  71.6391110  37.9623500  22.7693700  75.8750580
  38.4186280  23.5798950  76.1010770  37.6111710  22.4516840  76.7069070
  40.2656110  28.2800040  83.1042880  40.9098330  28.4859420  83.7816300
  40.6285550  27.5188440  82.6513730  33.8635280  13.1131350  76.3473100
  33.7349910  13.1049250  77.2958020  33.0397300  13.4514440  75.9964110
  41.5388190  26.2832390  81.8220330  42.1810420  25.5825550  81.9352500
  42.0637540  27.0630830  81.6417220  43.3125810  27.0827290  85.0256390
  43.6482050  27.6693980  85.7034310  42.3926150  26.9520000  85.2554180
  31.1659940  30.5947870  72.3203930  31.5257580  31.1937210  71.6661200
  31.0252280  31.1407760  73.0938960  30.8629210  14.8722470  85.8079800
  30.1487730  15.0719390  86.4132410  31.2824250  14.0962040  86.1794600
  31.1501800  28.8602730  86.7946330  31.2592920  27.9197470  86.6541720
  30.4982360  29.1257480  86.1460060  39.1414390  27.1318620  88.1944450
  38.8211260  26.4127860  88.7390140  38.4672750  27.8073690  88.2680510
  32.7835200  23.1993960  73.8824360  32.1763150  23.9392860  73.8919660
  33.2584550  23.2893320  73.0562560  42.3567990  17.3644780  83.5581250
  42.7248810  16.5439990  83.8860820  41.4966190  17.4246670  83.9736900
  45.7230020  16.3201720  74.3668810  45.0943180  16.4247390  73.6527040
  45.2281940  16.5398500  75.1562690  37.6914050  18.5987670  75.7826690
  36.9830200  19.0674010  76.2240300  37.9758530  17.9409680  76.4171880
  39.3169980  20.0184370  83.7819220  39.8155230  20.4930190  84.4471070
  39.4592930  19.0947890  83.9889250  41.7229480  15.3238330  77.2222480
  41.5997260  15.3424460  76.2731990  42.6714040  15.3717270  77.3420880
  38.8106270  30.5593630  76.4950460  39.0647770  30.5215020  75.5729830
  37.8618750  30.4326960  76.4878710  35.8949070  16.9072750  73.1577400
  36.7439600  17.3442900  73.0917590  35.5280340  17.2193010  73.9849460
  46.5236840  16.2352330  84.6247610  46.0210440  16.9757730  84.9641420
  47.3393500  16.6236330  84.3084400  44.8158850  21.4785510  78.0708970
  43.8748990  21.4935740  78.2456660  45.1302920  20.6921470  78.5169270
  34.7940490  23.1605110  71.6312930  35.5603760  23.0486470  72.1938360
  34.8715180  22.4643080  70.9789700  33.4887250  20.5930180  72.3145820
  33.5690840  19.6457690  72.4263220  34.3807000  20.9237060  72.4206480
  34.2901960  30.7425570  79.4180360  35.0264440  30.1941030  79.6888930
  34.6742880  31.6081580  79.2786350  31.1747440  26.8099140  75.2921870
  30.2487220  27.0520280  75.2827280  31.6403870  27.6373400  75.1706620
  33.2960240  29.9271640  88.6065940  34.0972970  30.2483690  89.0201340
  32.7812060  29.5667220  89.3285850  42.1324870  26.0351510  88.5541350
  41.5263030  26.0583110  87.8137100  41.8278980  25.3034550  89.0908600
  43.5625240  29.7631800  87.1650760  44.5146990  29.6789820  87.1151000
  43.4153460  30.4273510  87.8384550  31.0158050  22.4145100  87.5501990
  31.5197070  21.8352380  88.1218220  30.2765470  22.6985330  88.0878360
  37.9181670  25.1359290  71.1048280  37.8132310  24.5211640  71.8309660
  37.7505890  24.6125180  70.3211290  38.0695990  23.8216090  87.0837510
  37.3041660  24.3901090  86.9992180  38.2511950  23.5292300  86.1905740
  41.1584400  24.1979320  71.7090270  40.6094500  24.6448620  72.3533010
  41.7803660  23.6928570  72.2327940  33.0481130  20.5574690  88.4452060
  33.0886470  20.2588560  89.3537290  33.9026630  20.9582300  88.2859580
  36.8259520  23.1570240  73.6055570  37.2475940  22.9910110  74.4486960
  36.9510360  22.3470470  73.1110710  34.9886940  19.1366790  86.4126550
  34.4583400  18.6457740  85.7849890  35.6575010  19.5650990  85.8784480
  39.3387160  22.1807850  70.8532670  39.8592820  21.4656870  70.4873820
  39.9855560  22.8193720  71.1533180  43.8865000  23.6036250  86.1767740
  44.3006020  23.7581330  87.0258160  42.9516000  23.7291470  86.3393520
  44.3587170  20.9432410  88.1806890  44.9407940  20.1884730  88.0927370
  44.5348940  21.4739850  87.4038370  35.4759240  16.1029160  86.4923840
  35.3816110  15.4849910  85.7674710  34.8956630  16.8295450  86.2653750
  38.2420680  14.6602400  83.5251230  37.7937980  14.6826660  82.6796780
  37.6085880  14.2621420  84.1221530  38.6480230  23.5556730  84.1463670
  39.0668340  24.3989460  83.9739910  37.7288860  23.6928770  83.9170450
  40.9844130  21.2872910  85.5301510  41.1040340  20.6914050  86.2696350
  41.8438130  21.3242600  85.1102810  43.3232030  21.8410100  84.1064020
  42.7967250  22.3652720  83.5029160  43.6663370  22.4737490  84.7373750
  35.7218420  19.2303470  70.5513730  35.5207480  18.3670830  70.9127070
  35.5510470  19.1436830  69.6135330  36.4987650  29.8609740  85.2621400
  35.9608740  30.5855800  84.9430100  36.7521610  29.3840080  84.4718740
  37.7512900  17.8294260  86.7877330  38.3412590  17.5210110  87.4755150
  36.9333140  17.3574010  86.9437230  42.5706330  17.4460070  87.0210350
  41.8821850  16.7841610  86.9560340  43.2912350  16.9998340  87.4658810
  43.2006730  14.0411700  73.0800610  43.4809020  13.1979600  73.4360030
  42.4272460  14.2734810  73.5939360  34.5201220  16.3304090  70.5391610
  34.8227120  16.3371520  69.6310760  35.2595810  15.9801950  71.0359270
  39.3549860  31.0960950  85.5208050  39.2808560  31.9996090  85.8280420
  38.4528700  30.7772850  85.4930120  37.7386150  15.2738710  71.5247810
  37.3908150  14.5962700  70.9450260  37.9398920  14.8128220  72.3391200
  33.5431350  25.6346510  71.3721410  33.9806220  26.1776180  72.0278990
  34.0279080  24.8093460  71.3817750  30.7577150  28.4235540  78.8241670
  31.0880160  27.5556600  78.5920310  31.1868150  28.6294060  79.6546630
  35.3539070  26.7544550  76.4843640  35.0534610  26.6309520  77.3847550
  35.2476560  25.8953140  76.0759370  31.2467360  29.2906130  81.5623300
  30.8098350  29.4706930  82.3947450  31.8145040  30.0480750  81.4205020
  48.1230990  26.5340950  71.1870320  47.2923950  26.6017600  71.6577550
  48.3002820  27.4245070  70.8837180  47.5787450  23.2788430  73.6904520
  48.3406360  23.8485080  73.7964210  47.5941820  22.7115630  74.4612830
  31.0791790  21.8026360  77.9212180  30.4240630  21.5338000  77.2771880
  31.9169740  21.6930840  77.4714160  45.5681180  25.5175110  83.9476770
  44.7541020  25.9472270  84.2102560  45.9755380  26.1293520  83.3345820
  47.6306620  23.5722800  70.8477040  47.9055460  24.4801680  70.7196260
  47.4417360  23.5085330  71.7839030  44.0282230  16.5967650  72.1430670
  44.4467110  16.4098630  71.3027330  43.7218290  15.7446700  72.4533600
  47.5271960  21.5091790  75.8406470  47.1515560  20.7419720  75.4087760
  46.7975080  21.8914490  76.3281400  32.1167720  22.1878930  82.4615520
  32.4840760  22.1006330  83.3411540  31.5478540  21.4245480  82.3622380
  46.9171580  20.6563310  85.4745990  46.6857670  20.4276060  84.5743940
  47.1776130  21.5762860  85.4290880  31.6683720  19.0988020  86.3673940
  30.7739770  19.0654780  86.7067650  32.2081270  19.2974810  87.1325190
  45.3559650  15.8819740  88.2525690  46.2329830  15.8903140  88.6359690
  45.3680490  15.1450580  87.6418040  30.2929870  19.0125290  73.8637510
  29.3893950  19.2755490  73.6889170  30.7770490  19.2836460  73.0837470
  46.8022920  19.7349280  79.1413710  47.3260400  19.2411930  78.5103880
  47.3882340  19.8699640  79.8861280  46.9812640  19.8189150  82.6633260
  46.0315350  19.7852690  82.7778250  47.1625650  20.7289260  82.4283030
  32.8357080  18.0690830  71.7731890  33.5448780  17.6474050  71.2879170
  32.1197020  18.1366060  71.1415240  32.4831240  14.1230160  70.8134540
  33.2059370  14.6639100  71.1315760  32.7555760  13.8493580  69.9376080
  46.2922890  18.9922630  75.0806120  46.7882010  18.7593500  75.8655000
  46.0938960  18.1534470  74.6643760  32.1723430  13.3736350  80.7157160
  32.8199620  12.8233730  80.2752320  32.5925270  13.6279500  81.5372970
  47.7210050  17.6283580  77.6143800  47.6109330  17.4739620  78.5526070
  48.4817640  17.1004520  77.3719210  46.0675770  13.5677710  84.0726800
  46.7047990  14.1811850  84.4385990  46.2150660  13.6038370  83.1276030
  48.6100320  15.4591500  70.8549940  49.5349630  15.3272680  70.6468230
  48.5876110  15.5384320  71.8086390  48.6838810  16.2302160  73.4806650
  47.8890310  16.1647280  74.0099560  48.8882090  17.1652800  73.4692000
  31.9255430  13.5292020  83.4582480  31.5770250  13.9855840  84.2240660
  31.5943130  12.6349150  83.5404910  33.5319800  26.7011620  87.6235670
  33.4889430  26.3304530  88.5050130  33.6630810  27.6389190  87.7637490
  37.2325830  28.2571210  83.2245390  36.9917190  28.5245770  82.3375910
  38.1728470  28.4276940  83.2796250  39.4380250  14.7203900  86.9801900
  39.3769140  15.3125730  87.7297310  40.3780630  14.6129860  86.8352160
  42.0754810  14.3773960  86.6194190  42.6895220  14.6953250  85.9575270
  42.6204370  13.8922550  87.2390050  32.5976070  13.0568220  86.7333250
  33.1459060  12.8756270  85.9699360  32.6631380  12.2662330  87.2689560
  33.3707830  29.6473870  84.7433450  32.7768150  29.5158570  85.4823490
  33.3631670  28.8112010  84.2775550  42.8162850  12.9406100  82.9463480
  41.9422690  13.2741210  82.7436410  42.7073600  12.4679280  83.7715350
  43.7234830  15.1476970  84.3305200  43.3948190  14.3328730  83.9506930
  44.6717130  15.1046780  84.2070890  33.0020060  27.0132250  83.6941490
  32.2754120  26.3937540  83.6267440  33.0629210  27.4072860  82.8239570
  36.6065160  29.2277250  80.4790900  37.1230180  28.6164610  79.9539160
  37.2562540  29.7306030  80.9701910  40.5637670  13.8575940  81.8856390
  39.7809460  14.3321440  82.1653150  40.2700600  12.9530770  81.7769570
  45.1158740  14.5599040  79.9305480  45.5566830  14.5044140  79.0827080
  44.8466330  15.4757050  80.0015660  46.9797310  14.1914280  77.9414300
  46.9185710  13.2475500  77.7945320  47.7589340  14.2994370  78.4867760
  31.2850060  30.3306640  76.9038250  31.1172100  29.6977320  77.6020140
  30.4184570  30.5366040  76.5532440  31.9078080  14.1623420  74.4070110
  32.6657440  14.2752300  73.8334140  31.4455250  14.9992620  74.3613540
  38.4491890  16.2762690  77.3972420  37.6366400  15.9019580  77.0568300
  38.9533530  15.5207770  77.6993610  42.9516870  12.9405140  78.6355490
  43.5546240  13.5125350  79.1104010  42.2109860  13.5044580  78.4129390
  46.0951470  13.3426700  73.9095770  46.2902100  14.2410150  74.1763200
  45.3081340  13.1113780  74.4028720  32.8912760  29.0239870  74.3488390
  32.3660380  29.4047900  73.6450350  32.8157340  29.6490640  75.0698100
  34.2803230  14.6887470  72.9472080  34.8095990  13.9017270  72.8180030
  34.9131550  15.3678660  73.1807610  36.4741070  14.4262610  76.0017470
  35.8443810  13.7249920  76.1687600  35.9346210  15.1866740  75.7850630
  39.4133020  31.0401840  88.6728080  40.3400330  30.8046110  88.7164040
  39.3983450  31.8673840  88.1914110  36.5996630  13.7046590  88.4369960
  36.3180900  14.2080190  87.6730780  36.9816330  12.9068340  88.0712090
  35.4905730  30.9722250  73.2237640  36.2224550  30.6881530  72.6761530
  35.7499400  30.7335530  74.1137020  34.6520520  27.0886980  73.2283970
  34.0229400  27.5572080  73.7769800  34.7668350  26.2436200  73.6630160
  43.2012090  13.1200170  89.0150430  43.0877540  13.4394780  89.9101950
  44.0181830  13.5212680  88.7187710  42.1070240  21.1392640  59.3785170
  42.0264290  20.2247250  59.1076880  41.6934660  21.6359710  58.6724880
  40.2388280  22.9171660  61.2594440  39.4630380  22.4372100  61.5493010
  40.8901210  22.2377310  61.0850600  34.2554110  23.2291470  62.1370200
  33.4238990  22.9740180  62.5366710  34.8635090  23.3002240  62.8728120
  34.2355370  27.2631560  62.3328220  34.5383410  26.3729300  62.1538440
  34.9798960  27.8201780  62.1050470  32.6646060  18.1893360  55.9212590
  31.7762760  18.5309330  55.8192470  32.9487250  17.9893680  55.0293420
  30.6279070  20.7899010  61.8052290  31.1995180  20.0221210  61.8055930
  30.6280610  21.0887770  60.8958900  39.6797270  25.5928850  61.2664600
  39.6105550  24.6518790  61.1053730  40.4417130  25.6830260  61.8387170
  31.8703940  16.1983370  63.5921220  31.6906780  15.3009120  63.8723980
  31.4684020  16.7455240  64.2668170  40.7102440  18.3999230  61.4933530
  41.0867260  17.5271110  61.3807200  40.6121950  18.7357930  60.6023970
  34.8407450  16.7724860  56.9550970  34.9474200  17.6728590  57.2619730
  33.9299810  16.7242830  56.6645620  44.4926560  15.8949670  58.4261870
  45.3136180  15.4046240  58.4687350  44.5260640  16.4847330  59.1793710
  32.4890610  18.6943870  62.2003560  33.1700720  18.9582240  62.8190960
  32.1738660  17.8544740  62.5341570  36.6815180  19.7411230  61.2876150
  37.1893400  20.2392200  61.9281170  37.2128420  18.9646430  61.1115510
  48.7826110  17.9116420  64.9905500  48.0778280  18.2998130  64.4720610
  49.0484030  18.6066710  65.5926430  34.9651280  14.3809790  65.5539570
  34.9669720  14.8982180  64.7485470  34.1355590  13.9039970  65.5309500
  36.2154130  24.0204970  63.7313070  35.8823510  24.6473890  64.3734140
  36.3920810  24.5466850  62.9514740  44.7288040  17.8350050  61.1989410
  44.0243610  18.1234940  61.7792520  45.0900200  18.6450160  60.8388970
  34.6466610  16.0919750  63.5610020  34.9883420  16.9361800  63.2663890
  33.7082420  16.2403490  63.6775360  35.4273230  25.9885770  65.5462250
  36.0447230  26.6636850  65.2646700  34.5666350  26.3973750  65.4549750
  30.7205570  25.1785630  54.4269100  30.3433550  25.6672730  53.6954000
  30.9778640  25.8510910  55.0575630  47.7974960  17.2804840  61.5898620
  46.8499870  17.3143820  61.7214050  48.1224950  18.0943790  61.9747980
  38.3294500  13.5802020  59.8854610  38.6369480  13.0248910  59.1690110
  37.3995200  13.7146480  59.7027600  43.2795000  24.1999150  63.5044680
  43.6963790  23.9859260  62.6698140  44.0034820  24.4571940  64.0753300
  40.7175260  21.6450850  56.6214730  39.7904540  21.5788230  56.8503200
  40.8700080  22.5830980  56.5069970  40.7044340  17.9167850  53.6181890
  39.7648010  18.0781810  53.7034350  41.0227600  18.6353530  53.0717880
  47.2257100  22.5986370  63.5960920  46.3975730  22.6679460  63.1211050
  47.8207580  23.1840680  63.1276750  44.7472550  23.2071150  57.1249980
  44.1284970  22.8690700  56.4776280  44.7297000  22.5630910  57.8329170
  44.1899110  19.3855690  64.5415790  43.7770290  20.2109400  64.7955780
  43.4575060  18.8000730  64.3492150  36.3231900  22.1715590  59.4034460
  35.9188900  21.4592840  58.9080360  36.4095020  21.8268830  60.2922500
  36.7913600  25.8583150  61.5673670  36.4941890  25.2528620  60.8881450
  37.7413420  25.8960460  61.4563030  35.0360520  18.9458800  63.1833500
  35.5875110  19.0554140  62.4086750  35.5504030  19.3196400  63.8988730
  35.8832030  25.5964840  68.2181470  34.9860560  25.8204810  68.4654870
  35.9084900  25.7199780  67.2692870  42.9237250  22.4457960  54.1322730
  43.3630530  21.6080390  53.9860550  43.6365670  23.0787360  54.2186870
  34.7103250  22.4678160  66.7938840  34.5711020  23.3400960  67.1626240
  33.8284610  22.1250970  66.6486780  36.5083600  28.4099860  69.0023990
  36.4799030  28.8142810  68.1352420  36.3448570  27.4810220  68.8395590
  46.5054390  13.7000770  52.4463770  46.1927050  13.7927600  53.3462840
  47.2666860  14.2781800  52.3961200  33.0236530  21.0660570  56.9041110
  32.9034130  21.7922660  56.2922380  32.7137420  20.2963480  56.4269020
  30.6621900  24.2375710  62.7109750  30.7402320  24.3724480  61.7665470
  31.2763580  23.5291600  62.9037870  31.9069530  25.9375900  59.1215930
  31.4997610  26.0790490  58.2669530  32.7982540  25.6536060  58.9187140
  47.7155680  18.4372270  68.4237910  47.0999950  18.9451940  67.8953370
  47.3952100  17.5370600  68.3663850  30.7181420  25.2789880  65.2504210
  30.8812460  24.8095240  64.4323580  31.1833870  24.7713440  65.9153050
  35.4900190  14.4095640  60.2864780  35.0468340  15.1905180  59.9549300
  36.0485180  14.7325530  60.9935720  39.7770000  17.2764160  65.8900100
  39.3149370  17.4847180  66.7020040  39.3748110  16.4623510  65.5870770
  44.7774510  18.4973110  67.0196760  43.9268100  18.1978860  67.3405830
  44.6176300  18.7415120  66.1080580  41.8724220  19.9974860  69.1195550
  42.1977630  19.1638610  68.7797780  42.6604550  20.5203380  69.2673880
  38.6059010  14.0306340  55.1670610  37.9813190  14.0266210  55.8923920
  38.5189130  13.1637300  54.7706580  37.5276090  14.9542970  62.1454380
  37.8248420  15.8605800  62.0646400  38.0761650  14.4661750  61.5313950
  35.2814410  19.5329210  58.0146030  35.0555330  19.3166380  58.9192650
  34.5006940  19.9657670  57.6692000  42.5112170  19.5392580  56.6136680
  41.9121060  20.2628380  56.4300300  43.0591780  19.4769360  55.8313130
  37.7213620  20.4314790  68.6806300  37.6257220  19.4909520  68.5306700
  38.5645600  20.6529860  68.2854370  41.1177040  18.1756120  58.6439960
  41.5106610  18.4928320  57.8308650  41.4793890  17.2968000  58.7584480
  32.8524160  16.8428460  66.8340080  32.4587550  17.6903670  67.0412860
  32.1642560  16.2054830  67.0248720  39.4269210  16.9263430  69.9036820
  38.7367530  16.7335630  70.5382910  40.1701510  17.2098070  70.4361120
  30.1541210  14.7656920  60.8670160  29.8654260  15.3359780  61.5795140
  30.8986970  14.2861370  61.2301390  30.3411440  18.7077040  52.0772880
  30.2586110  19.6507800  52.2187870  29.9894500  18.5651950  51.1985230
  41.7032180  20.7661870  62.7390740  40.9713300  21.2748680  63.0880840
  41.3056520  19.9491850  62.4379520  38.1409570  17.4416070  61.1443230
  38.1445630  17.0006020  60.2947770  39.0360690  17.7633400  61.2515050
  33.9911950  17.3242560  60.1037440  33.6512000  17.8017790  60.8604490
  33.2289270  16.8707680  59.7438540  38.2029720  18.4428150  54.1349990
  38.3242540  18.4014630  55.0835810  37.8178230  19.3052300  53.9796720
  42.1658090  16.2195550  62.1513680  42.1830830  16.6704200  62.9955530
  41.9173670  15.3201190  62.3647120  37.2151220  20.7529290  53.5333290
  36.6468120  20.3047540  52.9069200  37.9240220  21.1122070  52.9998440
  45.5928840  13.6327730  67.9900060  45.9174610  12.9017390  68.5158040
  45.6285350  13.3141370  67.0881050  32.2920400  24.6541310  67.4100020
  31.9075190  24.0134980  68.0082980  32.6032590  25.3577430  67.9794750
  38.4417540  21.5017850  62.8908640  38.8087670  21.0276420  63.6369980
  38.2522600  22.3759420  63.2316980  31.3058030  16.2461540  59.0202110
  31.0204950  15.8817210  59.8580730  31.2436890  15.5142000  58.4065250
  36.2316910  20.5426490  65.2092850  35.9273980  21.4218470  65.4343210
  37.1863370  20.6026280  65.2450290  34.7598700  24.7487480  55.8059700
  33.9860960  24.2085100  55.6458420  35.4893330  24.2294090  55.4677460
  45.5186680  23.7452840  61.5986090  46.2385800  24.2408130  61.2082200
  45.3168500  23.0670730  60.9539960  40.9796620  15.1390800  55.7415480
  40.1661230  14.6403970  55.6660790  40.7858570  15.9789050  55.3251830
  40.9005480  23.8161900  67.4855090  40.8342790  22.8957570  67.2312680
  40.2710620  23.9137340  68.1999730  43.6945010  19.5110450  54.0377640
  44.5824630  19.8227680  53.8628980  43.6650100  18.6382700  53.6458220
  34.8036100  24.4167860  59.4438510  35.3214770  23.6136120  59.3895400
  34.3520120  24.3547000  60.2855340  32.2880640  21.3829230  66.3564210
  31.9295580  22.0483080  66.9437550  31.9935200  20.5512780  66.7276830
  35.4893760  21.8413470  69.2403760  35.1893900  21.9870650  68.3431580
  36.2605000  21.2818760  69.1477150  45.9659280  20.8222290  53.5057500
  45.8823000  21.2536510  52.6553940  46.6853470  21.2820640  53.9384320
  47.0433420  23.2789810  66.5827470  46.3181610  23.8718590  66.3856860
  47.5708880  23.2713350  65.7840840  42.5733010  25.0049980  60.0811320
  42.9256830  24.4078110  59.4212690  41.6895340  24.6794210  60.2519570
  30.7988690  21.3820490  52.9798810  31.6683540  21.6645290  53.2634730
  30.3079010  22.1956360  52.8647620  37.9623500  22.7693700  57.1007090
  38.4186280  23.5798950  57.3267280  37.6111710  22.4516840  57.9325580
  33.8635280  13.1131350  57.5729610  33.7349910  13.1049250  58.5214530
  33.0397300  13.4514440  57.2220620  41.5388190  26.2832390  63.0476840
  42.1810420  25.5825550  63.1609010  42.0637540  27.0630830  62.8673730
  30.8629210  14.8722470  67.0336310  30.1487730  15.0719390  67.6388920
  31.2824250  14.0962040  67.4051110  31.1501800  28.8602730  68.0202840
  31.2592920  27.9197470  67.8798230  30.4982360  29.1257480  67.3716570
  32.7835200  23.1993960  55.1080870  32.1763150  23.9392860  55.1176170
  33.2584550  23.2893320  54.2819070  42.3567990  17.3644780  64.7837760
  42.7248810  16.5439990  65.1117330  41.4966190  17.4246670  65.1993410
  45.7230020  16.3201720  55.5925320  45.0943180  16.4247390  54.8783550
  45.2281940  16.5398500  56.3819200  37.6914050  18.5987670  57.0083200
  36.9830200  19.0674010  57.4496810  37.9758530  17.9409680  57.6428390
  39.3169980  20.0184370  65.0075730  39.8155230  20.4930190  65.6727580
  39.4592930  19.0947890  65.2145760  41.7229480  15.3238330  58.4478990
  41.5997260  15.3424460  57.4988500  42.6714040  15.3717270  58.5677390
  35.8949070  16.9072750  54.3833910  36.7439600  17.3442900  54.3174100
  35.5280340  17.2193010  55.2105970  46.5236840  16.2352330  65.8504120
  46.0210440  16.9757730  66.1897930  47.3393500  16.6236330  65.5340910
  44.8158850  21.4785510  59.2965480  43.8748990  21.4935740  59.4713170
  45.1302920  20.6921470  59.7425780  34.7940490  23.1605110  52.8569440
  35.5603760  23.0486470  53.4194870  34.8715180  22.4643080  52.2046210
  33.4887250  20.5930180  53.5402330  33.5690840  19.6457690  53.6519730
  34.3807000  20.9237060  53.6462990  31.1747440  26.8099140  56.5178380
  30.2487220  27.0520280  56.5083790  31.6403870  27.6373400  56.3963130
  33.2960240  29.9271640  69.8322450  34.0972970  30.2483690  70.2457850
  32.7812060  29.5667220  70.5542360  31.0158050  22.4145100  68.7758500
  31.5197070  21.8352380  69.3474730  30.2765470  22.6985330  69.3134870
  38.0695990  23.8216090  68.3094020  37.3041660  24.3901090  68.2248690
  38.2511950  23.5292300  67.4162250  45.2119340  25.5521420  68.8669040
  45.9528810  25.8897180  68.3636500  44.4492020  25.7213480  68.3138810
  33.0481130  20.5574690  69.6708570  33.0886470  20.2588560  70.5793800
  33.9026630  20.9582300  69.5116090  36.8259520  23.1570240  54.8312080
  37.2475940  22.9910110  55.6743470  36.9510360  22.3470470  54.3367220
  34.9886940  19.1366790  67.6383060  34.4583400  18.6457740  67.0106400
  35.6575010  19.5650990  67.1040990  39.3387160  22.1807850  52.0789180
  39.8592820  21.4656870  51.7130330  39.9855560  22.8193720  52.3789690
  43.8865000  23.6036250  67.4024250  44.3006020  23.7581330  68.2514670
  42.9516000  23.7291470  67.5650030  44.3587170  20.9432410  69.4063400
  44.9407940  20.1884730  69.3183880  44.5348940  21.4739850  68.6294880
  35.4759240  16.1029160  67.7180350  35.3816110  15.4849910  66.9931220
  34.8956630  16.8295450  67.4910260  38.2420680  14.6602400  64.7507740
  37.7937980  14.6826660  63.9053290  37.6085880  14.2621420  65.3478040
  38.6480230  23.5556730  65.3720180  39.0668340  24.3989460  65.1996420
  37.7288860  23.6928770  65.1426960  40.9844130  21.2872910  66.7558020
  41.1040340  20.6914050  67.4952860  41.8438130  21.3242600  66.3359320
  43.3232030  21.8410100  65.3320530  42.7967250  22.3652720  64.7285670
  43.6663370  22.4737490  65.9630260  35.7218420  19.2303470  51.7770240
  35.5207480  18.3670830  52.1383580  35.5510470  19.1436830  50.8391840
  36.4987650  29.8609740  66.4877910  35.9608740  30.5855800  66.1686610
  36.7521610  29.3840080  65.6975250  37.7512900  17.8294260  68.0133840
  38.3412590  17.5210110  68.7011660  36.9333140  17.3574010  68.1693740
  42.5706330  17.4460070  68.2466860  41.8821850  16.7841610  68.1816850
  43.2912350  16.9998340  68.6915320  43.2006730  14.0411700  54.3057120
  43.4809020  13.1979600  54.6616540  42.4272460  14.2734810  54.8195870
  34.5201220  16.3304090  51.7648120  34.8227120  16.3371520  50.8567270
  35.2595810  15.9801950  52.2615780  37.7386150  15.2738710  52.7504320
  37.3908150  14.5962700  52.1706770  37.9398920  14.8128220  53.5647710
  30.7577150  28.4235540  60.0498180  31.0880160  27.5556600  59.8176820
  31.1868150  28.6294060  60.8803140  35.3539070  26.7544550  57.7100150
  35.0534610  26.6309520  58.6104060  35.2476560  25.8953140  57.3015880
  31.2467360  29.2906130  62.7879810  30.8098350  29.4706930  63.6203960
  31.8145040  30.0480750  62.6461530  47.5787450  23.2788430  54.9161030
  48.3406360  23.8485080  55.0220720  47.5941820  22.7115630  55.6869340
  31.0791790  21.8026360  59.1468690  30.4240630  21.5338000  58.5028390
  31.9169740  21.6930840  58.6970670  48.5847420  24.1338530  59.7602960
  48.9556250  23.3505850  59.3538930  49.2249350  24.8227630  59.5820260
  45.5681180  25.5175110  65.1733280  44.7541020  25.9472270  65.4359070
  45.9755380  26.1293520  64.5602330  47.6306620  23.5722800  52.0733550
  47.9055460  24.4801680  51.9452770  47.4417360  23.5085330  53.0095540
  44.0282230  16.5967650  53.3687180  44.4467110  16.4098630  52.5283840
  43.7218290  15.7446700  53.6790110  47.5271960  21.5091790  57.0662980
  47.1515560  20.7419720  56.6344270  46.7975080  21.8914490  57.5537910
  32.1167720  22.1878930  63.6872030  32.4840760  22.1006330  64.5668050
  31.5478540  21.4245480  63.5878890  46.9171580  20.6563310  66.7002500
  46.6857670  20.4276060  65.8000450  47.1776130  21.5762860  66.6547390
  31.6683720  19.0988020  67.5930450  30.7739770  19.0654780  67.9324160
  32.2081270  19.2974810  68.3581700  45.3559650  15.8819740  69.4782200
  46.2329830  15.8903140  69.8616200  45.3680490  15.1450580  68.8674550
  30.2929870  19.0125290  55.0894020  29.3893950  19.2755490  54.9145680
  30.7770490  19.2836460  54.3093980  46.8022920  19.7349280  60.3670220
  47.3260400  19.2411930  59.7360390  47.3882340  19.8699640  61.1117790
  46.9812640  19.8189150  63.8889770  46.0315350  19.7852690  64.0034760
  47.1625650  20.7289260  63.6539540  32.8357080  18.0690830  52.9988400
  33.5448780  17.6474050  52.5135680  32.1197020  18.1366060  52.3671750
  32.4831240  14.1230160  52.0391050  33.2059370  14.6639100  52.3572270
  32.7555760  13.8493580  51.1632590  46.2922890  18.9922630  56.3062630
  46.7882010  18.7593500  57.0911510  46.0938960  18.1534470  55.8900270
  32.1723430  13.3736350  61.9413670  32.8199620  12.8233730  61.5008830
  32.5925270  13.6279500  62.7629480  47.7210050  17.6283580  58.8400310
  47.6109330  17.4739620  59.7782580  48.4817640  17.1004520  58.5975720
  46.0675770  13.5677710  65.2983310  46.7047990  14.1811850  65.6642500
  46.2150660  13.6038370  64.3532540  48.6100320  15.4591500  52.0806450
  49.5349630  15.3272680  51.8724740  48.5876110  15.5384320  53.0342900
  48.6838810  16.2302160  54.7063160  47.8890310  16.1647280  55.2356070
  48.8882090  17.1652800  54.6948510  31.9255430  13.5292020  64.6838990
  31.5770250  13.9855840  65.4497170  31.5943130  12.6349150  64.7661420
  33.5319800  26.7011620  68.8492180  33.4889430  26.3304530  69.7306640
  33.6630810  27.6389190  68.9894000  37.2325830  28.2571210  64.4501900
  36.9917190  28.5245770  63.5632420  38.1728470  28.4276940  64.5052760
  39.4380250  14.7203900  68.2058410  39.3769140  15.3125730  68.9553820
  40.3780630  14.6129860  68.0608670  42.0754810  14.3773960  67.8450700
  42.6895220  14.6953250  67.1831780  42.6204370  13.8922550  68.4646560
  32.5976070  13.0568220  67.9589760  33.1459060  12.8756270  67.1955870
  32.6631380  12.2662330  68.4946070  33.3707830  29.6473870  65.9689960
  32.7768150  29.5158570  66.7080000  33.3631670  28.8112010  65.5032060
  42.8162850  12.9406100  64.1719990  41.9422690  13.2741210  63.9692920
  42.7073600  12.4679280  64.9971860  43.7234830  15.1476970  65.5561710
  43.3948190  14.3328730  65.1763440  44.6717130  15.1046780  65.4327400
  33.0020060  27.0132250  64.9198000  32.2754120  26.3937540  64.8523950
  33.0629210  27.4072860  64.0496080  36.6065160  29.2277250  61.7047410
  37.1230180  28.6164610  61.1795670  37.2562540  29.7306030  62.1958420
  40.5637670  13.8575940  63.1112900  39.7809460  14.3321440  63.3909660
  40.2700600  12.9530770  63.0026080  45.1158740  14.5599040  61.1561990
  45.5566830  14.5044140  60.3083590  44.8466330  15.4757050  61.2272170
  46.9797310  14.1914280  59.1670810  46.9185710  13.2475500  59.0201830
  47.7589340  14.2994370  59.7124270  31.2850060  30.3306640  58.1294760
  31.1172100  29.6977320  58.8276650  30.4184570  30.5366040  57.7788950
  31.9078080  14.1623420  55.6326620  32.6657440  14.2752300  55.0590650
  31.4455250  14.9992620  55.5870050  38.4491890  16.2762690  58.6228930
  37.6366400  15.9019580  58.2824810  38.9533530  15.5207770  58.9250120
  42.9516870  12.9405140  59.8612000  43.5546240  13.5125350  60.3360520
  42.2109860  13.5044580  59.6385900  46.0951470  13.3426700  55.1352280
  46.2902100  14.2410150  55.4019710  45.3081340  13.1113780  55.6285230
  34.2803230  14.6887470  54.1728590  34.8095990  13.9017270  54.0436540
  34.9131550  15.3678660  54.4064120  36.4741070  14.4262610  57.2273980
  35.8443810  13.7249920  57.3944110  35.9346210  15.1866740  57.0107140
  36.5996630  13.7046590  69.6626470  36.3180900  14.2080190  68.8987290
  36.9816330  12.9068340  69.2968600  43.2012090  13.1200170  70.2406940
  43.0877540  13.4394780  71.1358460  44.0181830  13.5212680  69.9444220
  42.1070240  21.1392640  40.6041680  42.0264290  20.2247250  40.3333390
  41.6934660  21.6359710  39.8981390  40.7102440  18.3999230  42.7190040
  41.0867260  17.5271110  42.6063710  40.6121950  18.7357930  41.8280480
  44.4926560  15.8949670  39.6518380  45.3136180  15.4046240  39.6943860
  44.5260640  16.4847330  40.4050220  48.7826110  17.9116420  46.2162010
  48.0778280  18.2998130  45.6977120  49.0484030  18.6066710  46.8182940
  34.9651280  14.3809790  46.7796080  34.9669720  14.8982180  45.9741980
  34.1355590  13.9039970  46.7566010  44.7288040  17.8350050  42.4245920
  44.0243610  18.1234940  43.0049030  45.0900200  18.6450160  42.0645480
  47.7974960  17.2804840  42.8155130  46.8499870  17.3143820  42.9470560
  48.1224950  18.0943790  43.2004490  44.1899110  19.3855690  45.7672300
  43.7770290  20.2109400  46.0212290  43.4575060  18.8000730  45.5748660
  46.5054390  13.7000770  33.6720280  46.1927050  13.7927600  34.5719350
  47.2666860  14.2781800  33.6217710  47.7155680  18.4372270  49.6494420
  47.0999950  18.9451940  49.1209880  47.3952100  17.5370600  49.5920360
  39.7770000  17.2764160  47.1156610  39.3149370  17.4847180  47.9276550
  39.3748110  16.4623510  46.8127280  44.7774510  18.4973110  48.2453270
  43.9268100  18.1978860  48.5662340  44.6176300  18.7415120  47.3337090
  41.8724220  19.9974860  50.3452060  42.1977630  19.1638610  50.0054290
  42.6604550  20.5203380  50.4930390  38.6059010  14.0306340  36.3927120
  37.9813190  14.0266210  37.1180430  38.5189130  13.1637300  35.9963090
  37.7213620  20.4314790  49.9062810  37.6257220  19.4909520  49.7563210
  38.5645600  20.6529860  49.5110880  41.1177040  18.1756120  39.8696470
  41.5106610  18.4928320  39.0565160  41.4793890  17.2968000  39.9840990
  32.8524160  16.8428460  48.0596590  32.4587550  17.6903670  48.2669370
  32.1642560  16.2054830  48.2505230  39.4269210  16.9263430  51.1293330
  38.7367530  16.7335630  51.7639420  40.1701510  17.2098070  51.6617630
  41.7032180  20.7661870  43.9647250  40.9713300  21.2748680  44.3137350
  41.3056520  19.9491850  43.6636030  42.1658090  16.2195550  43.3770190
  42.1830830  16.6704200  44.2212040  41.9173670  15.3201190  43.5903630
  45.5928840  13.6327730  49.2156570  45.9174610  12.9017390  49.7414550
  45.6285350  13.3141370  48.3137560  38.4417540  21.5017850  44.1165150
  38.8087670  21.0276420  44.8626490  38.2522600  22.3759420  44.4573490
  40.9796620  15.1390800  36.9671990  40.1661230  14.6403970  36.8917300
  40.7858570  15.9789050  36.5508340  30.8629210  14.8722470  48.2592820
  30.1487730  15.0719390  48.8645430  31.2824250  14.0962040  48.6307620
  42.3567990  17.3644780  46.0094270  42.7248810  16.5439990  46.3373840
  41.4966190  17.4246670  46.4249920  45.7230020  16.3201720  36.8181830
  45.0943180  16.4247390  36.1040060  45.2281940  16.5398500  37.6075710
  37.6914050  18.5987670  38.2339710  36.9830200  19.0674010  38.6753320
  37.9758530  17.9409680  38.8684900  39.3169980  20.0184370  46.2332240
  39.8155230  20.4930190  46.8984090  39.4592930  19.0947890  46.4402270
  41.7229480  15.3238330  39.6735500  41.5997260  15.3424460  38.7245010
  42.6714040  15.3717270  39.7933900  46.5236840  16.2352330  47.0760630
  46.0210440  16.9757730  47.4154440  47.3393500  16.6236330  46.7597420
  33.0481130  20.5574690  50.8965080  33.0886470  20.2588560  51.8050310
  33.9026630  20.9582300  50.7372600  34.9886940  19.1366790  48.8639570
  34.4583400  18.6457740  48.2362910  35.6575010  19.5650990  48.3297500
  44.3587170  20.9432410  50.6319910  44.9407940  20.1884730  50.5440390
  44.5348940  21.4739850  49.8551390  35.4759240  16.1029160  48.9436860
  35.3816110  15.4849910  48.2187730  34.8956630  16.8295450  48.7166770
  38.2420680  14.6602400  45.9764250  37.7937980  14.6826660  45.1309800
  37.6085880  14.2621420  46.5734550  40.9844130  21.2872910  47.9814530
  41.1040340  20.6914050  48.7209370  41.8438130  21.3242600  47.5615830
  43.3232030  21.8410100  46.5577040  42.7967250  22.3652720  45.9542180
  43.6663370  22.4737490  47.1886770  37.7512900  17.8294260  49.2390350
  38.3412590  17.5210110  49.9268170  36.9333140  17.3574010  49.3950250
  42.5706330  17.4460070  49.4723370  41.8821850  16.7841610  49.4073360
  43.2912350  16.9998340  49.9171830  43.2006730  14.0411700  35.5313630
  43.4809020  13.1979600  35.8873050  42.4272460  14.2734810  36.0452380
  46.9171580  20.6563310  47.9259010  46.6857670  20.4276060  47.0256960
  47.1776130  21.5762860  47.8803900  31.6683720  19.0988020  48.8186960
  30.7739770  19.0654780  49.1580670  32.2081270  19.2974810  49.5838210
  45.3559650  15.8819740  50.7038710  46.2329830  15.8903140  51.0872710
  45.3680490  15.1450580  50.0931060  46.8022920  19.7349280  41.5926730
  47.3260400  19.2411930  40.9616900  47.3882340  19.8699640  42.3374300
  46.9812640  19.8189150  45.1146280  46.0315350  19.7852690  45.2291270
  47.1625650  20.7289260  44.8796050  47.7210050  17.6283580  40.0656820
  47.6109330  17.4739620  41.0039090  48.4817640  17.1004520  39.8232230
  46.0675770  13.5677710  46.5239820  46.7047990  14.1811850  46.8899010
  46.2150660  13.6038370  45.5789050  48.6100320  15.4591500  33.3062960
  49.5349630  15.3272680  33.0981250  48.5876110  15.5384320  34.2599410
  48.6838810  16.2302160  35.9319670  47.8890310  16.1647280  36.4612580
  48.8882090  17.1652800  35.9205020  31.9255430  13.5292020  45.9095500
  31.5770250  13.9855840  46.6753680  31.5943130  12.6349150  45.9917930
  39.4380250  14.7203900  49.4314920  39.3769140  15.3125730  50.1810330
  40.3780630  14.6129860  49.2865180  42.0754810  14.3773960  49.0707210
  42.6895220  14.6953250  48.4088290  42.6204370  13.8922550  49.6903070
  32.5976070  13.0568220  49.1846270  33.1459060  12.8756270  48.4212380
  32.6631380  12.2662330  49.7202580  42.8162850  12.9406100  45.3976500
  41.9422690  13.2741210  45.1949430  42.7073600  12.4679280  46.2228370
  43.7234830  15.1476970  46.7818220  43.3948190  14.3328730  46.4019950
  44.6717130  15.1046780  46.6583910  40.5637670  13.8575940  44.3369410
  39.7809460  14.3321440  44.6166170  40.2700600  12.9530770  44.2282590
  45.1158740  14.5599040  42.3818500  45.5566830  14.5044140  41.5340100
  44.8466330  15.4757050  42.4528680  46.9797310  14.1914280  40.3927320
  46.9185710  13.2475500  40.2458340  47.7589340  14.2994370  40.9380780
  42.9516870  12.9405140  41.0868510  43.5546240  13.5125350  41.5617030
  42.2109860  13.5044580  40.8642410  46.0951470  13.3426700  36.3608790
  46.2902100  14.2410150  36.6276220  45.3081340  13.1113780  36.8541740
  36.5996630  13.7046590  50.8882980  36.3180900  14.2080190  50.1243800
  36.9816330  12.9068340  50.5225110  43.2012090  13.1200170  51.4663450
  43.0877540  13.4394780  52.3614970  44.0181830  13.5212680  51.1700730
  42.1070240  21.1392640  21.8298190  42.0264290  20.2247250  21.5589900
  41.6934660  21.6359710  21.1237900  34.2554110  23.2291470  24.5883220
  33.4238990  22.9740180  24.9879730  34.8635090  23.3002240  25.3241140
  44.2595710  27.3231850  22.4906590  43.7977240  26.5519090  22.8193760
  45.0721260  27.3497920  22.9959040  34.2355370  27.2631560  24.7841240
  34.5383410  26.3729300  24.6051460  34.9798960  27.8201780  24.5563490
  32.6646060  18.1893360  18.3725610  31.7762760  18.5309330  18.2705490
  32.9487250  17.9893680  17.4806440  30.6279070  20.7899010  24.2565310
  31.1995180  20.0221210  24.2568950  30.6280610  21.0887770  23.3471920
  40.4859020  29.6089860  22.1110580  39.8670460  30.0647360  21.5405020
  41.3410800  29.7641320  21.7100280  39.6797270  25.5928850  23.7177620
  39.6105550  24.6518790  23.5566750  40.4417130  25.6830260  24.2900190
  31.8703940  16.1983370  26.0434240  31.6906780  15.3009120  26.3237000
  31.4684020  16.7455240  26.7181190  40.7102440  18.3999230  23.9446550
  41.0867260  17.5271110  23.8320220  40.6121950  18.7357930  23.0536990
  34.8407450  16.7724860  19.4063990  34.9474200  17.6728590  19.7132750
  33.9299810  16.7242830  19.1158640  44.4926560  15.8949670  20.8774890
  45.3136180  15.4046240  20.9200370  44.5260640  16.4847330  21.6306730
  32.4890610  18.6943870  24.6516580  33.1700720  18.9582240  25.2703980
  32.1738660  17.8544740  24.9854590  36.6815180  19.7411230  23.7389170
  37.1893400  20.2392200  24.3794190  37.2128420  18.9646430  23.5628530
  48.7826110  17.9116420  27.4418520  48.0778280  18.2998130  26.9233630
  49.0484030  18.6066710  28.0439450  41.3522370  24.4929100  19.5042490
  40.7339640  24.9578550  18.9405210  41.8645620  25.1856580  19.9212000
  36.2154130  24.0204970  26.1826090  35.8823510  24.6473890  26.8247160
  36.3920810  24.5466850  25.4027760  44.7288040  17.8350050  23.6502430
  44.0243610  18.1234940  24.2305540  45.0900200  18.6450160  23.2901990
  34.6466610  16.0919750  26.0123040  34.9883420  16.9361800  25.7176910
  33.7082420  16.2403490  26.1288380  35.4273230  25.9885770  27.9975270
  36.0447230  26.6636850  27.7159720  34.5666350  26.3973750  27.9062770
  30.7205570  25.1785630  16.8782120  30.3433550  25.6672730  16.1467020
  30.9778640  25.8510910  17.5088650  46.3450820  27.4525180  25.9129910
  45.6614340  28.1224290  25.9046580  46.8845110  27.6505830  25.1474770
  47.7974960  17.2804840  24.0411640  46.8499870  17.3143820  24.1727070
  48.1224950  18.0943790  24.4261000  38.3294500  13.5802020  22.3367630
  38.6369480  13.0248910  21.6203130  37.3995200  13.7146480  22.1540620
  43.8809560  29.2969310  24.6275090  43.8936720  28.8931600  23.7597350
  43.3284780  30.0716600  24.5236520  45.1754980  26.0185530  19.7165260
  45.0651310  25.0759860  19.8414680  45.1723230  26.3801170  20.6028020
  40.7175260  21.6450850  19.0727750  39.7904540  21.5788230  19.3016220
  40.8700080  22.5830980  18.9582990  40.7044340  17.9167850  16.0694910
  39.7648010  18.0781810  16.1547370  41.0227600  18.6353530  15.5230900
  47.2257100  22.5986370  26.0473940  46.3975730  22.6679460  25.5724070
  47.8207580  23.1840680  25.5789770  44.7472550  23.2071150  19.5763000
  44.1284970  22.8690700  18.9289300  44.7297000  22.5630910  20.2842190
  36.3231900  22.1715590  21.8547480  35.9188900  21.4592840  21.3593380
  36.4095020  21.8268830  22.7435520  36.7913600  25.8583150  24.0186690
  36.4941890  25.2528620  23.3394470  37.7413420  25.8960460  23.9076050
  35.0360520  18.9458800  25.6346520  35.5875110  19.0554140  24.8599770
  35.5504030  19.3196400  26.3501750  42.9237250  22.4457960  16.5835750
  43.3630530  21.6080390  16.4373570  43.6365670  23.0787360  16.6699890
  41.0332630  27.3854030  20.5516990  41.4728540  28.1278360  20.1372380
  40.9719520  27.6280600  21.4755950  46.5054390  13.7000770  14.8976790
  46.1927050  13.7927600  15.7975860  47.2666860  14.2781800  14.8474220
  33.0236530  21.0660570  19.3554130  32.9034130  21.7922660  18.7435400
  32.7137420  20.2963480  18.8782040  30.6621900  24.2375710  25.1622770
  30.7402320  24.3724480  24.2178490  31.2763580  23.5291600  25.3550890
  31.9069530  25.9375900  21.5728950  31.4997610  26.0790490  20.7182550
  32.7982540  25.6536060  21.3700160  43.7002810  30.3723150  17.9080000
  43.5403950  30.0826090  18.8061830  43.5349520  29.5963280  17.3725230
  36.1791190  30.1521680  19.6851620  36.0033670  29.2357220  19.4719420
  35.3246930  30.5108970  19.9249420  43.4028940  27.8810710  16.4678000
  42.7094100  27.8788000  15.8080280  44.1451800  27.4570030  16.0372170
  42.9678870  29.5073420  20.5426490  43.4235820  28.7262800  20.8565110
  43.3071390  30.2180240  21.0867670  35.4900190  14.4095640  22.7377800
  35.0468340  15.1905180  22.4062320  36.0485180  14.7325530  23.4448740
  38.6059010  14.0306340  17.6183630  37.9813190  14.0266210  18.3436940
  38.5189130  13.1637300  17.2219600  37.5276090  14.9542970  24.5967400
  37.8248420  15.8605800  24.5159420  38.0761650  14.4661750  23.9826970
  35.2814410  19.5329210  20.4659050  35.0555330  19.3166380  21.3705670
  34.5006940  19.9657670  20.1205020  42.5112170  19.5392580  19.0649700
  41.9121060  20.2628380  18.8813320  43.0591780  19.4769360  18.2826150
  41.1177040  18.1756120  21.0952980  41.5106610  18.4928320  20.2821670
  41.4793890  17.2968000  21.2097500  30.1541210  14.7656920  23.3183180
  29.8654260  15.3359780  24.0308160  30.8986970  14.2861370  23.6814410
  30.3411440  18.7077040  14.5285900  30.2586110  19.6507800  14.6700890
  29.9894500  18.5651950  13.6498250  38.1409570  17.4416070  23.5956250
  38.1445630  17.0006020  22.7460790  39.0360690  17.7633400  23.7028070
  33.9911950  17.3242560  22.5550460  33.6512000  17.8017790  23.3117510
  33.2289270  16.8707680  22.1951560  38.2029720  18.4428150  16.5863010
  38.3242540  18.4014630  17.5348830  37.8178230  19.3052300  16.4309740
  42.1658090  16.2195550  24.6026700  42.1830830  16.6704200  25.4468550
  41.9173670  15.3201190  24.8160140  37.2151220  20.7529290  15.9846310
  36.6468120  20.3047540  15.3582220  37.9240220  21.1122070  15.4511460
  45.5928840  13.6327730  30.4413080  45.9174610  12.9017390  30.9671060
  45.6285350  13.3141370  29.5394070  31.3058030  16.2461540  21.4715130
  31.0204950  15.8817210  22.3093750  31.2436890  15.5142000  20.8578270
  34.7598700  24.7487480  18.2572720  33.9860960  24.2085100  18.0971440
  35.4893330  24.2294090  17.9190480  45.5186680  23.7452840  24.0499110
  46.2385800  24.2408130  23.6595220  45.3168500  23.0670730  23.4052980
  40.9796620  15.1390800  18.1928500  40.1661230  14.6403970  18.1173810
  40.7858570  15.9789050  17.7764850  43.6945010  19.5110450  16.4890660
  44.5824630  19.8227680  16.3142000  43.6650100  18.6382700  16.0971240
  34.8036100  24.4167860  21.8951530  35.3214770  23.6136120  21.8408420
  34.3520120  24.3547000  22.7368360  39.6905600  25.6834140  17.1678830
  40.0321300  26.4276370  16.6722150  38.8618310  25.9965260  17.5303660
  45.9659280  20.8222290  15.9570520  45.8823000  21.2536510  15.1066960
  46.6853470  21.2820640  16.3897340  46.9946530  27.6764550  18.6852650
  46.3522690  27.0220170  18.9596370  46.6077190  28.0819640  17.9093320
  42.5733010  25.0049980  22.5324340  42.9256830  24.4078110  21.8725710
  41.6895340  24.6794210  22.7032590  38.6596290  25.7647670  19.9394750
  39.3467420  26.3116880  20.3202340  37.8728710  26.3088400  19.9744360
  30.7988690  21.3820490  15.4311830  31.6683540  21.6645290  15.7147750
  30.3079010  22.1956360  15.3160640  37.9623500  22.7693700  19.5520110
  38.4186280  23.5798950  19.7780300  37.6111710  22.4516840  20.3838600
  40.2656110  28.2800040  26.7812410  40.9098330  28.4859420  27.4585830
  40.6285550  27.5188440  26.3283260  33.8635280  13.1131350  20.0242630
  33.7349910  13.1049250  20.9727550  33.0397300  13.4514440  19.6733640
  41.5388190  26.2832390  25.4989860  42.1810420  25.5825550  25.6122030
  42.0637540  27.0630830  25.3186750  45.3843910  26.5681010  15.2229000
  45.1581490  25.8511450  15.8153640  44.9940110  26.3193450  14.3850750
  31.1659940  30.5947870  15.9973460  31.5257580  31.1937210  15.3430730
  31.0252280  31.1407760  16.7708490  44.9660160  24.4852950  16.8843160
  44.6781860  24.9465640  17.6721040  45.7612330  24.0250720  17.1527380
  37.1828560  27.9779070  16.8147130  37.1738660  28.7108760  16.1991640
  36.2626920  27.7310650  16.9074090  32.7835200  23.1993960  17.5593890
  32.1763150  23.9392860  17.5689190  33.2584550  23.2893320  16.7332090
  45.7230020  16.3201720  18.0438340  45.0943180  16.4247390  17.3296570
  45.2281940  16.5398500  18.8332220  40.1688160  28.0407310  15.4772320
  40.2700140  27.8371300  14.5474300  39.2689900  27.7865590  15.6820100
  37.6914050  18.5987670  19.4596220  36.9830200  19.0674010  19.9009830
  37.9758530  17.9409680  20.0941410  41.7229480  15.3238330  20.8992010
  41.5997260  15.3424460  19.9501520  42.6714040  15.3717270  21.0190410
  38.8106270  30.5593630  20.1719990  39.0647770  30.5215020  19.2499360
  37.8618750  30.4326960  20.1648240  35.8949070  16.9072750  16.8346930
  36.7439600  17.3442900  16.7687120  35.5280340  17.2193010  17.6618990
  46.5236840  16.2352330  28.3017140  46.0210440  16.9757730  28.6410950
  47.3393500  16.6236330  27.9853930  44.8158850  21.4785510  21.7478500
  43.8748990  21.4935740  21.9226190  45.1302920  20.6921470  22.1938800
  34.7940490  23.1605110  15.3082460  35.5603760  23.0486470  15.8707890
  34.8715180  22.4643080  14.6559230  33.4887250  20.5930180  15.9915350
  33.5690840  19.6457690  16.1032750  34.3807000  20.9237060  16.0976010
  34.2901960  30.7425570  23.0949890  35.0264440  30.1941030  23.3658460
  34.6742880  31.6081580  22.9555880  31.1747440  26.8099140  18.9691400
  30.2487220  27.0520280  18.9596810  31.6403870  27.6373400  18.8476150
  33.2960240  29.9271640  32.2835470  34.0972970  30.2483690  32.6970870
  32.7812060  29.5667220  33.0055380  37.4004270  29.9155880  14.9175460
  38.1932880  30.2044710  14.4657250  36.8808620  29.4848050  14.2387940
  46.4534440  29.1426010  16.3412200  46.1675950  28.7291150  15.5266380
  46.2553990  30.0713720  16.2212720  37.9181670  25.1359290  14.7817810
  37.8132310  24.5211640  15.5079190  37.7505890  24.6125180  13.9980820
  41.1584400  24.1979320  15.3859800  40.6094500  24.6448620  16.0302540
  41.7803660  23.6928570  15.9097470  36.8259520  23.1570240  17.2825100
  37.2475940  22.9910110  18.1256490  36.9510360  22.3470470  16.7880240
  39.3387160  22.1807850  14.5302200  39.8592820  21.4656870  14.1643350
  39.9855560  22.8193720  14.8302710  38.2420680  14.6602400  27.2020760
  37.7937980  14.6826660  26.3566310  37.6085880  14.2621420  27.7991060
  35.7218420  19.2303470  14.2283260  35.5207480  18.3670830  14.5896600
  35.5510470  19.1436830  13.2904860  36.4987650  29.8609740  28.9390930
  35.9608740  30.5855800  28.6199630  36.7521610  29.3840080  28.1488270
  43.2006730  14.0411700  16.7570140  43.4809020  13.1979600  17.1129560
  42.4272460  14.2734810  17.2708890  34.5201220  16.3304090  14.2161140
  34.8227120  16.3371520  13.3080290  35.2595810  15.9801950  14.7128800
  37.7386150  15.2738710  15.2017340  37.3908150  14.5962700  14.6219790
  37.9398920  14.8128220  16.0160730  39.9035190  30.2619460  16.8203940
  40.7985980  30.6004430  16.8422700  39.9352820  29.5398870  16.1928220
  33.5431350  25.6346510  15.0490940  33.9806220  26.1776180  15.7048520
  34.0279080  24.8093460  15.0587280  30.7577150  28.4235540  22.5011200
  31.0880160  27.5556600  22.2689840  31.1868150  28.6294060  23.3316160
  35.3539070  26.7544550  20.1613170  35.0534610  26.6309520  21.0617080
  35.2476560  25.8953140  19.7528900  48.1230990  26.5340950  14.8639850
  47.2923950  26.6017600  15.3347080  48.3002820  27.4245070  14.5606710
  47.5787450  23.2788430  17.3674050  48.3406360  23.8485080  17.4733740
  47.5941820  22.7115630  18.1382360  31.0791790  21.8026360  21.5981710
  30.4240630  21.5338000  20.9541410  31.9169740  21.6930840  21.1483690
  48.5847420  24.1338530  22.2115980  48.9556250  23.3505850  21.8051950
  49.2249350  24.8227630  22.0333280  47.6306620  23.5722800  14.5246570
  47.9055460  24.4801680  14.3965790  47.4417360  23.5085330  15.4608560
  44.0282230  16.5967650  15.8200200  44.4467110  16.4098630  14.9796860
  43.7218290  15.7446700  16.1303130  47.5271960  21.5091790  19.5176000
  47.1515560  20.7419720  19.0857290  46.7975080  21.8914490  20.0050930
  30.2929870  19.0125290  17.5407040  29.3893950  19.2755490  17.3658700
  30.7770490  19.2836460  16.7607000  46.8022920  19.7349280  22.8183240
  47.3260400  19.2411930  22.1873410  47.3882340  19.8699640  23.5630810
  46.9812640  19.8189150  26.3402790  46.0315350  19.7852690  26.4547780
  47.1625650  20.7289260  26.1052560  32.8357080  18.0690830  15.4501420
  33.5448780  17.6474050  14.9648700  32.1197020  18.1366060  14.8184770
  32.4831240  14.1230160  14.4904070  33.2059370  14.6639100  14.8085290
  32.7555760  13.8493580  13.6145610  46.2922890  18.9922630  18.7575650
  46.7882010  18.7593500  19.5424530  46.0938960  18.1534470  18.3413290
  32.1723430  13.3736350  24.3926690  32.8199620  12.8233730  23.9521850
  32.5925270  13.6279500  25.2142500  47.7210050  17.6283580  21.2913330
  47.6109330  17.4739620  22.2295600  48.4817640  17.1004520  21.0488740
  46.0675770  13.5677710  27.7496330  46.7047990  14.1811850  28.1155520
  46.2150660  13.6038370  26.8045560  48.6100320  15.4591500  14.5319470
  49.5349630  15.3272680  14.3237760  48.5876110  15.5384320  15.4855920
  48.6838810  16.2302160  17.1576180  47.8890310  16.1647280  17.6869090
  48.8882090  17.1652800  17.1461530  31.9255430  13.5292020  27.1352010
  31.5770250  13.9855840  27.9010190  31.5943130  12.6349150  27.2174440
  33.5319800  26.7011620  31.3005200  33.4889430  26.3304530  32.1819660
  33.6630810  27.6389190  31.4407020  37.2325830  28.2571210  26.9014920
  36.9917190  28.5245770  26.0145440  38.1728470  28.4276940  26.9565780
  42.0754810  14.3773960  30.2963720  42.6895220  14.6953250  29.6344800
  42.6204370  13.8922550  30.9159580  42.8162850  12.9406100  26.6233010
  41.9422690  13.2741210  26.4205940  42.7073600  12.4679280  27.4484880
  43.7234830  15.1476970  28.0074730  43.3948190  14.3328730  27.6276460
  44.6717130  15.1046780  27.8840420  36.6065160  29.2277250  24.1560430
  37.1230180  28.6164610  23.6308690  37.2562540  29.7306030  24.6471440
  39.3460660  30.1185740  24.9829410  39.6338470  29.8640040  24.1062420
  39.8583880  29.5663100  25.5734980  40.5637670  13.8575940  25.5625920
  39.7809460  14.3321440  25.8422680  40.2700600  12.9530770  25.4539100
  45.1158740  14.5599040  23.6075010  45.5566830  14.5044140  22.7596610
  44.8466330  15.4757050  23.6785190  46.9797310  14.1914280  21.6183830
  46.9185710  13.2475500  21.4714850  47.7589340  14.2994370  22.1637290
  31.2850060  30.3306640  20.5807780  31.1172100  29.6977320  21.2789670
  30.4184570  30.5366040  20.2301970  31.9078080  14.1623420  18.0839640
  32.6657440  14.2752300  17.5103670  31.4455250  14.9992620  18.0383070
  38.4491890  16.2762690  21.0741950  37.6366400  15.9019580  20.7337830
  38.9533530  15.5207770  21.3763140  42.9516870  12.9405140  22.3125020
  43.5546240  13.5125350  22.7873540  42.2109860  13.5044580  22.0898920
  46.0951470  13.3426700  17.5865300  46.2902100  14.2410150  17.8532730
  45.3081340  13.1113780  18.0798250  32.8912760  29.0239870  18.0257920
  32.3660380  29.4047900  17.3219880  32.8157340  29.6490640  18.7467630
  34.2803230  14.6887470  16.6241610  34.8095990  13.9017270  16.4949560
  34.9131550  15.3678660  16.8577140  36.4741070  14.4262610  19.6787000
  35.8443810  13.7249920  19.8457130  35.9346210  15.1866740  19.4620160
  35.4905730  30.9722250  16.9007170  36.2224550  30.6881530  16.3531060
  35.7499400  30.7335530  17.7906550  34.6520520  27.0886980  16.9053500
  34.0229400  27.5572080  17.4539330  34.7668350  26.2436200  17.3399690
  43.2012090  13.1200170  32.6919960  43.0877540  13.4394780  33.5871480
  44.0181830  13.5212680  32.3957240  42.1070240  21.1392640   3.0554700
  42.0264290  20.2247250   2.7846410  41.6934660  21.6359710   2.3494410
  40.2388280  22.9171660   4.9363970  39.4630380  22.4372100   5.2262540
  40.8901210  22.2377310   4.7620130  34.2554110  23.2291470   5.8139730
  33.4238990  22.9740180   6.2136240  34.8635090  23.3002240   6.5497650
  44.2595710  27.3231850   3.7163100  43.7977240  26.5519090   4.0450270
  45.0721260  27.3497920   4.2215550  34.2355370  27.2631560   6.0097750
  34.5383410  26.3729300   5.8307970  34.9798960  27.8201780   5.7820000
  30.6279070  20.7899010   5.4821820  31.1995180  20.0221210   5.4825460
  30.6280610  21.0887770   4.5728430  40.4859020  29.6089860   3.3367090
  39.8670460  30.0647360   2.7661530  41.3410800  29.7641320   2.9356790
  39.6797270  25.5928850   4.9434130  39.6105550  24.6518790   4.7823260
  40.4417130  25.6830260   5.5156700  31.8703940  16.1983370   7.2690750
  31.6906780  15.3009120   7.5493510  31.4684020  16.7455240   7.9437700
  40.7102440  18.3999230   5.1703060  41.0867260  17.5271110   5.0576730
  40.6121950  18.7357930   4.2793500  44.4926560  15.8949670   2.1031400
  45.3136180  15.4046240   2.1456880  44.5260640  16.4847330   2.8563240
  32.4890610  18.6943870   5.8773090  33.1700720  18.9582240   6.4960490
  32.1738660  17.8544740   6.2111100  36.6815180  19.7411230   4.9645680
  37.1893400  20.2392200   5.6050700  37.2128420  18.9646430   4.7885040
  48.7826110  17.9116420   8.6675030  48.0778280  18.2998130   8.1490140
  49.0484030  18.6066710   9.2695960  34.9651280  14.3809790   9.2309100
  34.9669720  14.8982180   8.4255000  34.1355590  13.9039970   9.2079030
  36.2154130  24.0204970   7.4082600  35.8823510  24.6473890   8.0503670
  36.3920810  24.5466850   6.6284270  44.7288040  17.8350050   4.8758940
  44.0243610  18.1234940   5.4562050  45.0900200  18.6450160   4.5158500
  34.6466610  16.0919750   7.2379550  34.9883420  16.9361800   6.9433420
  33.7082420  16.2403490   7.3544890  35.4273230  25.9885770   9.2231780
  36.0447230  26.6636850   8.9416230  34.5666350  26.3973750   9.1319280
  46.3450820  27.4525180   7.1386420  45.6614340  28.1224290   7.1303090
  46.8845110  27.6505830   6.3731280  47.7974960  17.2804840   5.2668150
  46.8499870  17.3143820   5.3983580  48.1224950  18.0943790   5.6517510
  38.3294500  13.5802020   3.5624140  38.6369480  13.0248910   2.8459640
  37.3995200  13.7146480   3.3797130  43.8809560  29.2969310   5.8531600
  43.8936720  28.8931600   4.9853860  43.3284780  30.0716600   5.7493030
  43.2795000  24.1999150   7.1814210  43.6963790  23.9859260   6.3467670
  44.0034820  24.4571940   7.7522830  47.2257100  22.5986370   7.2730450
  46.3975730  22.6679460   6.7980580  47.8207580  23.1840680   6.8046280
  44.1899110  19.3855690   8.2185320  43.7770290  20.2109400   8.4725310
  43.4575060  18.8000730   8.0261680  36.3231900  22.1715590   3.0803990
  35.9188900  21.4592840   2.5849890  36.4095020  21.8268830   3.9692030
  36.7913600  25.8583150   5.2443200  36.4941890  25.2528620   4.5650980
  37.7413420  25.8960460   5.1332560  35.0360520  18.9458800   6.8603030
  35.5875110  19.0554140   6.0856280  35.5504030  19.3196400   7.5758260
  44.8799210  29.4315020   8.9066300  44.4029770  30.2387210   8.7138910
  44.1961000  28.7793350   9.0592510  35.8832030  25.5964840  11.8951000
  34.9860560  25.8204810  12.1424400  35.9084900  25.7199780  10.9462400
  34.7103250  22.4678160  10.4708370  34.5711020  23.3400960  10.8395770
  33.8284610  22.1250970  10.3256310  36.5083600  28.4099860  12.6793520
  36.4799030  28.8142810  11.8121950  36.3448570  27.4810220  12.5165120
  48.4598420  29.1926960  13.9757690  48.9358140  29.6709850  14.6546770
  49.0805580  29.1244450  13.2503190  30.6621900  24.2375710   6.3879280
  30.7402320  24.3724480   5.4435000  31.2763580  23.5291600   6.5807400
  31.9069530  25.9375900   2.7985460  31.4997610  26.0790490   1.9439060
  32.7982540  25.6536060   2.5956670  47.8631670  26.3839810  11.1357700
  47.9894730  26.1451690  10.2174880  47.9053050  25.5524350  11.6079780
  41.7248410  30.0867810   9.7052510  42.2393080  29.9975820  10.5074940
  40.8817490  30.4327510   9.9980420  42.9678870  29.5073420   1.7683000
  43.4235820  28.7262800   2.0821620  43.3071390  30.2180240   2.3124180
  47.7155680  18.4372270  12.1007440  47.0999950  18.9451940  11.5722900
  47.3952100  17.5370600  12.0433380  30.7181420  25.2789880   8.9273740
  30.8812460  24.8095240   8.1093110  31.1833870  24.7713440   9.5922580
  35.4900190  14.4095640   3.9634310  35.0468340  15.1905180   3.6318830
  36.0485180  14.7325530   4.6705250  39.7770000  17.2764160   9.5669630
  39.3149370  17.4847180  10.3789570  39.3748110  16.4623510   9.2640300
  44.7774510  18.4973110  10.6966290  43.9268100  18.1978860  11.0175360
  44.6176300  18.7415120   9.7850110  41.8724220  19.9974860  12.7965080
  42.1977630  19.1638610  12.4567310  42.6604550  20.5203380  12.9443410
  37.5276090  14.9542970   5.8223910  37.8248420  15.8605800   5.7415930
  38.0761650  14.4661750   5.2083480  37.7213620  20.4314790  12.3575830
  37.6257220  19.4909520  12.2076230  38.5645600  20.6529860  11.9623900
  32.8524160  16.8428460  10.5109610  32.4587550  17.6903670  10.7182390
  32.1642560  16.2054830  10.7018250  39.4269210  16.9263430  13.5806350
  38.7367530  16.7335630  14.2152440  40.1701510  17.2098070  14.1130650
  30.1541210  14.7656920   4.5439690  29.8654260  15.3359780   5.2564670
  30.8986970  14.2861370   4.9070920  41.7032180  20.7661870   6.4160270
  40.9713300  21.2748680   6.7650370  41.3056520  19.9491850   6.1149050
  38.1409570  17.4416070   4.8212760  38.1445630  17.0006020   3.9717300
  39.0360690  17.7633400   4.9284580  33.9911950  17.3242560   3.7806970
  33.6512000  17.8017790   4.5374020  33.2289270  16.8707680   3.4208070
  42.1658090  16.2195550   5.8283210  42.1830830  16.6704200   6.6725060
  41.9173670  15.3201190   6.0416650  45.5928840  13.6327730  11.6669590
  45.9174610  12.9017390  12.1927570  45.6285350  13.3141370  10.7650580
  32.2920400  24.6541310  11.0869550  31.9075190  24.0134980  11.6852510
  32.6032590  25.3577430  11.6564280  38.4417540  21.5017850   6.5678170
  38.8087670  21.0276420   7.3139510  38.2522600  22.3759420   6.9086510
  31.3058030  16.2461540   2.6971640  31.0204950  15.8817210   3.5350260
  31.2436890  15.5142000   2.0834780  36.2316910  20.5426490   8.8862380
  35.9273980  21.4218470   9.1112740  37.1863370  20.6026280   8.9219820
  45.5186680  23.7452840   5.2755620  46.2385800  24.2408130   4.8851730
  45.3168500  23.0670730   4.6309490  40.9005480  23.8161900  11.1624620
  40.8342790  22.8957570  10.9082210  40.2710620  23.9137340  11.8769260
  34.8036100  24.4167860   3.1208040  35.3214770  23.6136120   3.0664930
  34.3520120  24.3547000   3.9624870  32.2880640  21.3829230  10.0333740
  31.9295580  22.0483080  10.6207080  31.9935200  20.5512780  10.4046360
  35.4893760  21.8413470  12.9173290  35.1893900  21.9870650  12.0201110
  36.2605000  21.2818760  12.8246680  40.8322210  26.6382470  10.9128420
  40.8466750  25.7063430  10.6947330  40.1247310  26.7242230  11.5518190
  42.5733010  25.0049980   3.7580850  42.9256830  24.4078110   3.0982220
  41.6895340  24.6794210   3.9289100  40.2656110  28.2800040   8.0068920
  40.9098330  28.4859420   8.6842340  40.6285550  27.5188440   7.5539770
  41.5388190  26.2832390   6.7246370  42.1810420  25.5825550   6.8378540
  42.0637540  27.0630830   6.5443260  43.3125810  27.0827290   9.9282430
  43.6482050  27.6693980  10.6060350  42.3926150  26.9520000  10.1580220
  30.8629210  14.8722470  10.7105840  30.1487730  15.0719390  11.3158450
  31.2824250  14.0962040  11.0820640  31.1501800  28.8602730  11.6972370
  31.2592920  27.9197470  11.5567760  30.4982360  29.1257480  11.0486100
  39.1414390  27.1318620  13.0970490  38.8211260  26.4127860  13.6416180
  38.4672750  27.8073690  13.1706550  42.3567990  17.3644780   8.4607290
  42.7248810  16.5439990   8.7886860  41.4966190  17.4246670   8.8762940
  39.3169980  20.0184370   8.6845260  39.8155230  20.4930190   9.3497110
  39.4592930  19.0947890   8.8915290  46.5236840  16.2352330   9.5273650
  46.0210440  16.9757730   9.8667460  47.3393500  16.6236330   9.2110440
  44.8158850  21.4785510   2.9735010  43.8748990  21.4935740   3.1482700
  45.1302920  20.6921470   3.4195310  46.8184430  28.6494360   4.6489270
  46.9431850  29.4725530   5.1213080  47.6849990  28.4385090   4.3013420
  34.2901960  30.7425570   4.3206400  35.0264440  30.1941030   4.5914970
  34.6742880  31.6081580   4.1812390  33.2960240  29.9271640  13.5091980
  34.0972970  30.2483690  13.9227380  32.7812060  29.5667220  14.2311890
  42.1324870  26.0351510  13.4567390  41.5263030  26.0583110  12.7163140
  41.8278980  25.3034550  13.9934640  43.5625240  29.7631800  12.0676800
  44.5146990  29.6789820  12.0177040  43.4153460  30.4273510  12.7410590
  31.0158050  22.4145100  12.4528030  31.5197070  21.8352380  13.0244260
  30.2765470  22.6985330  12.9904400  38.0695990  23.8216090  11.9863550
  37.3041660  24.3901090  11.9018220  38.2511950  23.5292300  11.0931780
  45.2119340  25.5521420  12.5438570  45.9528810  25.8897180  12.0406030
  44.4492020  25.7213480  11.9908340  33.0481130  20.5574690  13.3478100
  33.0886470  20.2588560  14.2563330  33.9026630  20.9582300  13.1885620
  34.9886940  19.1366790  11.3152590  34.4583400  18.6457740  10.6875930
  35.6575010  19.5650990  10.7810520  43.8865000  23.6036250  11.0793780
  44.3006020  23.7581330  11.9284200  42.9516000  23.7291470  11.2419560
  44.3587170  20.9432410  13.0832930  44.9407940  20.1884730  12.9953410
  44.5348940  21.4739850  12.3064410  35.4759240  16.1029160  11.3949880
  35.3816110  15.4849910  10.6700750  34.8956630  16.8295450  11.1679790
  38.2420680  14.6602400   8.4277270  37.7937980  14.6826660   7.5822820
  37.6085880  14.2621420   9.0247570  38.6480230  23.5556730   9.0489710
  39.0668340  24.3989460   8.8765950  37.7288860  23.6928770   8.8196490
  40.9844130  21.2872910  10.4327550  41.1040340  20.6914050  11.1722390
  41.8438130  21.3242600  10.0128850  43.3232030  21.8410100   9.0090060
  42.7967250  22.3652720   8.4055200  43.6663370  22.4737490   9.6399790
  36.4987650  29.8609740  10.1647440  35.9608740  30.5855800   9.8456140
  36.7521610  29.3840080   9.3744780  37.7512900  17.8294260  11.6903370
  38.3412590  17.5210110  12.3781190  36.9333140  17.3574010  11.8463270
  42.5706330  17.4460070  11.9236390  41.8821850  16.7841610  11.8586380
  43.2912350  16.9998340  12.3684850  39.3549860  31.0960950  10.4234090
  39.2808560  31.9996090  10.7306460  38.4528700  30.7772850  10.3956160
  30.7577150  28.4235540   3.7267710  31.0880160  27.5556600   3.4946350
  31.1868150  28.6294060   4.5572670  31.2467360  29.2906130   6.4649340
  30.8098350  29.4706930   7.2973490  31.8145040  30.0480750   6.3231060
  46.8829540  28.7923130  10.7526650  46.2831530  28.8515690  10.0090570
  47.0123440  27.8528110  10.8823500  31.0791790  21.8026360   2.8238220
  30.4240630  21.5338000   2.1797920  31.9169740  21.6930840   2.3740200
  48.5847420  24.1338530   3.4372490  48.9556250  23.3505850   3.0308460
  49.2249350  24.8227630   3.2589790  45.5681180  25.5175110   8.8502810
  44.7541020  25.9472270   9.1128600  45.9755380  26.1293520   8.2371860
  32.1167720  22.1878930   7.3641560  32.4840760  22.1006330   8.2437580
  31.5478540  21.4245480   7.2648420  46.9171580  20.6563310  10.3772030
  46.6857670  20.4276060   9.4769980  47.1776130  21.5762860  10.3316920
  31.6683720  19.0988020  11.2699980  30.7739770  19.0654780  11.6093690
  32.2081270  19.2974810  12.0351230  45.3559650  15.8819740  13.1551730
  46.2329830  15.8903140  13.5385730  45.3680490  15.1450580  12.5444080
  46.8022920  19.7349280   4.0439750  47.3260400  19.2411930   3.4129920
  47.3882340  19.8699640   4.7887320  46.9812640  19.8189150   7.5659300
  46.0315350  19.7852690   7.6804290  47.1625650  20.7289260   7.3309070
  32.1723430  13.3736350   5.6183200  32.8199620  12.8233730   5.1778360
  32.5925270  13.6279500   6.4399010  47.7210050  17.6283580   2.5169840
  47.6109330  17.4739620   3.4552110  48.4817640  17.1004520   2.2745250
  46.0675770  13.5677710   8.9752840  46.7047990  14.1811850   9.3412030
  46.2150660  13.6038370   8.0302070  45.6257230  30.2693710   2.3771080
  46.2216300  29.9478280   1.7005500  45.8835380  29.7965530   3.1684350
  31.9255430  13.5292020   8.3608520  31.5770250  13.9855840   9.1266700
  31.5943130  12.6349150   8.4430950  33.5319800  26.7011620  12.5261710
  33.4889430  26.3304530  13.4076170  33.6630810  27.6389190  12.6663530
  37.2325830  28.2571210   8.1271430  36.9917190  28.5245770   7.2401950
  38.1728470  28.4276940   8.1822290  39.4380250  14.7203900  11.8827940
  39.3769140  15.3125730  12.6323350  40.3780630  14.6129860  11.7378200
  42.0754810  14.3773960  11.5220230  42.6895220  14.6953250  10.8601310
  42.6204370  13.8922550  12.1416090  48.4929990  30.2765590   8.9282070
  47.9988270  30.6734460   8.2109200  47.8843280  29.6514800   9.3219350
  32.5976070  13.0568220  11.6359290  33.1459060  12.8756270  10.8725400
  32.6631380  12.2662330  12.1715600  33.3707830  29.6473870   9.6459490
  32.7768150  29.5158570  10.3849530  33.3631670  28.8112010   9.1801590
  42.8162850  12.9406100   7.8489520  41.9422690  13.2741210   7.6462450
  42.7073600  12.4679280   8.6741390  43.7234830  15.1476970   9.2331240
  43.3948190  14.3328730   8.8532970  44.6717130  15.1046780   9.1096930
  46.1769440  30.9189010   6.2068810  45.7172410  31.6704820   5.8326830
  45.5481900  30.1995480   6.1483610  33.0020060  27.0132250   8.5967530
  32.2754120  26.3937540   8.5293480  33.0629210  27.4072860   7.7265610
  36.6065160  29.2277250   5.3816940  37.1230180  28.6164610   4.8565200
  37.2562540  29.7306030   5.8727950  39.3460660  30.1185740   6.2085920
  39.6338470  29.8640040   5.3318930  39.8583880  29.5663100   6.7991490
  40.5637670  13.8575940   6.7882430  39.7809460  14.3321440   7.0679190
  40.2700600  12.9530770   6.6795610  45.1158740  14.5599040   4.8331520
  45.5566830  14.5044140   3.9853120  44.8466330  15.4757050   4.9041700
  46.9797310  14.1914280   2.8440340  46.9185710  13.2475500   2.6971360
  47.7589340  14.2994370   3.3893800  38.4491890  16.2762690   2.2998460
  37.6366400  15.9019580   1.9594340  38.9533530  15.5207770   2.6019650
  42.9516870  12.9405140   3.5381530  43.5546240  13.5125350   4.0130050
  42.2109860  13.5044580   3.3155430  39.4133020  31.0401840  13.5754120
  40.3400330  30.8046110  13.6190080  39.3983450  31.8673840  13.0940150
  36.5996630  13.7046590  13.3396000  36.3180900  14.2080190  12.5756820
  36.9816330  12.9068340  12.9738130  43.2012090  13.1200170  13.9176470
  43.0877540  13.4394780  14.8127990  44.0181830  13.5212680  13.6213750
  45.9810580  30.2671700  13.3995160  46.7735900  29.7720930  13.1921120
  46.2743730  30.9461840  14.0070770  42.1070240   2.3649150  96.9272150
  42.0264290   1.4503760  96.6563860  41.6934660   2.8616220  96.2211860
  40.2388280   4.1428170  98.8081420  39.4630380   3.6628610  99.0979990
  40.8901210   3.4633820  98.6337580  34.2554110   4.4547980  99.6857180
  33.4238990   4.1996690 100.0853690  34.8635090   4.5258750 100.4215100
  44.2595710   8.5488360  97.5880550  43.7977240   7.7775600  97.9167720
  45.0721260   8.5754430  98.0933000  34.2355370   8.4888070  99.8815200
  34.5383410   7.5985810  99.7025420  34.9798960   9.0458290  99.6537450
  30.6279070   2.0155520  99.3539270  31.1995180   1.2477720  99.3542910
  30.6280610   2.3144280  98.4445880  40.4859020  10.8346370  97.2084540
  39.8670460  11.2903870  96.6378980  41.3410800  10.9897830  96.8074240
  39.6797270   6.8185360  98.8151580  39.6105550   5.8775300  98.6540710
  40.4417130   6.9086770  99.3874150  41.3522370   5.7185610  94.6016450
  40.7339640   6.1835060  94.0379170  41.8645620   6.4113090  95.0185960
  30.7205570   6.4042140  91.9756080  30.3433550   6.8929240  91.2440980
  30.9778640   7.0767420  92.6062610  46.3450820   8.6781690 101.0103870
  45.6614340   9.3480800 101.0020540  46.8845110   8.8762340 100.2448730
  43.8809560  10.5225820  99.7249050  43.8936720  10.1188110  98.8571310
  43.3284780  11.2973110  99.6210480  45.1754980   7.2442040  94.8139220
  45.0651310   6.3016370  94.9388640  45.1723230   7.6057680  95.7001980
  43.2795000   5.4255660 101.0531660  43.6963790   5.2115770 100.2185120
  44.0034820   5.6828450 101.6240280  40.7175260   2.8707360  94.1701710
  39.7904540   2.8044740  94.3990180  40.8700080   3.8087490  94.0556950
  47.2257100   3.8242880 101.1447900  46.3975730   3.8935970 100.6698030
  47.8207580   4.4097190 100.6763730  44.7472550   4.4327660  94.6736960
  44.1284970   4.0947210  94.0263260  44.7297000   3.7887420  95.3816150
  36.3231900   3.3972100  96.9521440  35.9188900   2.6849350  96.4567340
  36.4095020   3.0525340  97.8409480  36.7913600   7.0839660  99.1160650
  36.4941890   6.4785130  98.4368430  37.7413420   7.1216970  99.0050010
  42.9237250   3.6714470  91.6809710  43.3630530   2.8336900  91.5347530
  43.6365670   4.3043870  91.7673850  41.0332630   8.6110540  95.6490950
  41.4728540   9.3534870  95.2346340  40.9719520   8.8537110  96.5729910
  33.0236530   2.2917080  94.4528090  32.9034130   3.0179170  93.8409360
  32.7137420   1.5219990  93.9756000  30.6621900   5.4632220 100.2596730
  30.7402320   5.5980990  99.3152450  31.2763580   4.7548110 100.4524850
  31.9069530   7.1632410  96.6702910  31.4997610   7.3047000  95.8156510
  32.7982540   6.8792570  96.4674120  43.7002810  11.5979660  93.0053960
  43.5403950  11.3082600  93.9035790  43.5349520  10.8219790  92.4699190
  36.1791190  11.3778190  94.7825580  36.0033670  10.4613730  94.5693380
  35.3246930  11.7365480  95.0223380  43.4028940   9.1067220  91.5651960
  42.7094100   9.1044510  90.9054240  44.1451800   8.6826540  91.1346130
  42.9678870  10.7329930  95.6400450  43.4235820   9.9519310  95.9539070
  43.3071390  11.4436750  96.1841630  41.7032180   1.9918380 100.2877720
  40.9713300   2.5005190 100.6367820  41.3056520   1.1748360  99.9866500
  37.2151220   1.9785800  91.0820270  36.6468120   1.5304050  90.4556180
  37.9240220   2.3378580  90.5485420  38.4417540   2.7274360 100.4395620
  38.8087670   2.2532930 101.1856960  38.2522600   3.6015930 100.7803960
  34.7598700   5.9743990  93.3546680  33.9860960   5.4341610  93.1945400
  35.4893330   5.4550600  93.0164440  45.5186680   4.9709350  99.1473070
  46.2385800   5.4664640  98.7569180  45.3168500   4.2927240  98.5026940
  34.8036100   5.6424370  96.9925490  35.3214770   4.8392630  96.9382380
  34.3520120   5.5803510  97.8342320  39.6905600   6.9090650  92.2652790
  40.0321300   7.6532880  91.7696110  38.8618310   7.2221770  92.6277620
  45.9659280   2.0478800  91.0544480  45.8823000   2.4793020  90.2040920
  46.6853470   2.5077150  91.4871300  46.9946530   8.9021060  93.7826610
  46.3522690   8.2476680  94.0570330  46.6077190   9.3076150  93.0067280
  42.5733010   6.2306490  97.6298300  42.9256830   5.6334620  96.9699670
  41.6895340   5.9050720  97.8006550  38.6596290   6.9904180  95.0368710
  39.3467420   7.5373390  95.4176300  37.8728710   7.5344910  95.0718320
  30.7988690   2.6077000  90.5285790  31.6683540   2.8901800  90.8121710
  30.3079010   3.4212870  90.4134600  37.9623500   3.9950210  94.6494070
  38.4186280   4.8055460  94.8754260  37.6111710   3.6773350  95.4812560
  41.5388190   7.5088900 100.5963820  42.1810420   6.8082060 100.7095990
  42.0637540   8.2887340 100.4160710  45.3843910   7.7937520  90.3202960
  45.1581490   7.0767960  90.9127600  44.9940110   7.5449960  89.4824710
  31.1659940  11.8204380  91.0947420  31.5257580  12.4193720  90.4404690
  31.0252280  12.3664270  91.8682450  44.9660160   5.7109460  91.9817120
  44.6781860   6.1722150  92.7695000  45.7612330   5.2507230  92.2501340
  37.1828560   9.2035580  91.9121090  37.1738660   9.9365270  91.2965600
  36.2626920   8.9567160  92.0048050  32.7835200   4.4250470  92.6567850
  32.1763150   5.1649370  92.6663150  33.2584550   4.5149830  91.8306050
  40.1688160   9.2663820  90.5746280  40.2700140   9.0627810  89.6448260
  39.2689900   9.0122100  90.7794060  38.8106270  11.7850140  95.2693950
  39.0647770  11.7471530  94.3473320  37.8618750  11.6583470  95.2622200
  44.8158850   2.7042020  96.8452460  43.8748990   2.7192250  97.0200150
  45.1302920   1.9177980  97.2912760  34.7940490   4.3861620  90.4056420
  35.5603760   4.2742980  90.9681850  34.8715180   3.6899590  89.7533190
  46.8184430   9.8750870  98.5206720  46.9431850  10.6982040  98.9930530
  47.6849990   9.6641600  98.1730870  34.2901960  11.9682080  98.1923850
  35.0264440  11.4197540  98.4632420  34.6742880  12.8338090  98.0529840
  31.1747440   8.0355650  94.0665360  30.2487220   8.2776790  94.0570770
  31.6403870   8.8629910  93.9450110  37.4004270  11.1412390  90.0149420
  38.1932880  11.4301220  89.5631210  36.8808620  10.7104560  89.3361900
  46.4534440  10.3682520  91.4386160  46.1675950   9.9547660  90.6240340
  46.2553990  11.2970230  91.3186680  37.9181670   6.3615800  89.8791770
  37.8132310   5.7468150  90.6053150  37.7505890   5.8381690  89.0954780
  41.1584400   5.4235830  90.4833760  40.6094500   5.8705130  91.1276500
  41.7803660   4.9185080  91.0071430  36.8259520   4.3826750  92.3799060
  37.2475940   4.2166620  93.2230450  36.9510360   3.5726980  91.8854200
  39.3387160   3.4064360  89.6276160  39.8592820   2.6913380  89.2617310
  39.9855560   4.0450230  89.9276670  39.9035190  11.4875970  91.9177900
  40.7985980  11.8260940  91.9396660  39.9352820  10.7655380  91.2902180
  33.5431350   6.8603020  90.1464900  33.9806220   7.4032690  90.8022480
  34.0279080   6.0349970  90.1561240  30.7577150   9.6492050  97.5985160
  31.0880160   8.7813110  97.3663800  31.1868150   9.8550570  98.4290120
  35.3539070   7.9801060  95.2587130  35.0534610   7.8566030  96.1591040
  35.2476560   7.1209650  94.8502860  31.2467360  10.5162640 100.3366790
  30.8098350  10.6963440 101.1690940  31.8145040  11.2737260 100.1948510
  48.1230990   7.7597460  89.9613810  47.2923950   7.8274110  90.4321040
  48.3002820   8.6501580  89.6580670  47.5787450   4.5044940  92.4648010
  48.3406360   5.0741590  92.5707700  47.5941820   3.9372140  93.2356320
  31.0791790   3.0282870  96.6955670  30.4240630   2.7594510  96.0515370
  31.9169740   2.9187350  96.2457650  48.5847420   5.3595040  97.3089940
  48.9556250   4.5762360  96.9025910  49.2249350   6.0484140  97.1307240
  47.6306620   4.7979310  89.6220530  47.9055460   5.7058190  89.4939750
  47.4417360   4.7341840  90.5582520  47.5271960   2.7348300  94.6149960
  47.1515560   1.9676230  94.1831250  46.7975080   3.1171000  95.1024890
  45.6257230  11.4950220  96.2488530  46.2216300  11.1734790  95.5722950
  45.8835380  11.0222040  97.0401800  46.1769440  12.1445520 100.0786260
  45.7172410  12.8961330  99.7044280  45.5481900  11.4251990 100.0201060
  36.6065160  10.4533760  99.2534390  37.1230180   9.8421120  98.7282650
  37.2562540  10.9562540  99.7445400  39.3460660  11.3442250 100.0803370
  39.6338470  11.0896550  99.2036380  39.8583880  10.7919610 100.6708940
  31.2850060  11.5563150  95.6781740  31.1172100  10.9233830  96.3763630
  30.4184570  11.7622550  95.3275930  32.8912760  10.2496380  93.1231880
  32.3660380  10.6304410  92.4193840  32.8157340  10.8747150  93.8441590
  47.6478080  11.8083920  94.4445820  47.8230270  11.1221660  93.8006740
  46.9499650  12.3330970  94.0522490  35.4905730  12.1978760  91.9981130
  36.2224550  11.9138040  91.4505020  35.7499400  11.9592040  92.8880510
  34.6520520   8.3143490  92.0027460  34.0229400   8.7828590  92.5513290
  34.7668350   7.4692710  92.4373650  42.1070240   2.3649150  78.1528660
  42.0264290   1.4503760  77.8820370  41.6934660   2.8616220  77.4468370
  40.2388280   4.1428170  80.0337930  39.4630380   3.6628610  80.3236500
  40.8901210   3.4633820  79.8594090  34.2554110   4.4547980  80.9113690
  33.4238990   4.1996690  81.3110200  34.8635090   4.5258750  81.6471610
  44.2595710   8.5488360  78.8137060  43.7977240   7.7775600  79.1424230
  45.0721260   8.5754430  79.3189510  34.2355370   8.4888070  81.1071710
  34.5383410   7.5985810  80.9281930  34.9798960   9.0458290  80.8793960
  30.6279070   2.0155520  80.5795780  31.1995180   1.2477720  80.5799420
  30.6280610   2.3144280  79.6702390  40.4859020  10.8346370  78.4341050
  39.8670460  11.2903870  77.8635490  41.3410800  10.9897830  78.0330750
  39.6797270   6.8185360  80.0408090  39.6105550   5.8775300  79.8797220
  40.4417130   6.9086770  80.6130660  41.3522370   5.7185610  75.8272960
  40.7339640   6.1835060  75.2635680  41.8645620   6.4113090  76.2442470
  36.2154130   5.2461480  82.5056560  35.8823510   5.8730400  83.1477630
  36.3920810   5.7723360  81.7258230  35.4273230   7.2142280  84.3205740
  36.0447230   7.8893360  84.0390190  34.5666350   7.6230260  84.2293240
  30.7205570   6.4042140  73.2012590  30.3433550   6.8929240  72.4697490
  30.9778640   7.0767420  73.8319120  46.3450820   8.6781690  82.2360380
  45.6614340   9.3480800  82.2277050  46.8845110   8.8762340  81.4705240
  43.8809560  10.5225820  80.9505560  43.8936720  10.1188110  80.0827820
  43.3284780  11.2973110  80.8466990  45.1754980   7.2442040  76.0395730
  45.0651310   6.3016370  76.1645150  45.1723230   7.6057680  76.9258490
  43.2795000   5.4255660  82.2788170  43.6963790   5.2115770  81.4441630
  44.0034820   5.6828450  82.8496790  40.7175260   2.8707360  75.3958220
  39.7904540   2.8044740  75.6246690  40.8700080   3.8087490  75.2813460
  47.2257100   3.8242880  82.3704410  46.3975730   3.8935970  81.8954540
  47.8207580   4.4097190  81.9020240  44.7472550   4.4327660  75.8993470
  44.1284970   4.0947210  75.2519770  44.7297000   3.7887420  76.6072660
  36.3231900   3.3972100  78.1777950  35.9188900   2.6849350  77.6823850
  36.4095020   3.0525340  79.0665990  36.7913600   7.0839660  80.3417160
  36.4941890   6.4785130  79.6624940  37.7413420   7.1216970  80.2306520
  44.8799210  10.6571530  84.0040260  44.4029770  11.4643720  83.8112870
  44.1961000  10.0049860  84.1566470  35.8832030   6.8221350  86.9924960
  34.9860560   7.0461320  87.2398360  35.9084900   6.9456290  86.0436360
  42.9237250   3.6714470  72.9066220  43.3630530   2.8336900  72.7604040
  43.6365670   4.3043870  72.9930360  34.7103250   3.6934670  85.5682330
  34.5711020   4.5657470  85.9369730  33.8284610   3.3507480  85.4230270
  41.0332630   8.6110540  76.8747460  41.4728540   9.3534870  76.4602850
  40.9719520   8.8537110  77.7986420  36.5083600   9.6356370  87.7767480
  36.4799030  10.0399320  86.9095910  36.3448570   8.7066730  87.6139080
  33.0236530   2.2917080  75.6784600  32.9034130   3.0179170  75.0665870
  32.7137420   1.5219990  75.2012510  48.4598420  10.4183470  89.0731650
  48.9358140  10.8966360  89.7520730  49.0805580  10.3500960  88.3477150
  30.6621900   5.4632220  81.4853240  30.7402320   5.5980990  80.5408960
  31.2763580   4.7548110  81.6781360  31.9069530   7.1632410  77.8959420
  31.4997610   7.3047000  77.0413020  32.7982540   6.8792570  77.6930630
  47.8631670   7.6096320  86.2331660  47.9894730   7.3708200  85.3148840
  47.9053050   6.7780860  86.7053740  41.7248410  11.3124320  84.8026470
  42.2393080  11.2232330  85.6048900  40.8817490  11.6584020  85.0954380
  43.7002810  11.5979660  74.2310470  43.5403950  11.3082600  75.1292300
  43.5349520  10.8219790  73.6955700  36.1791190  11.3778190  76.0082090
  36.0033670  10.4613730  75.7949890  35.3246930  11.7365480  76.2479890
  43.4028940   9.1067220  72.7908470  42.7094100   9.1044510  72.1310750
  44.1451800   8.6826540  72.3602640  42.9678870  10.7329930  76.8656960
  43.4235820   9.9519310  77.1795580  43.3071390  11.4436750  77.4098140
  30.7181420   6.5046390  84.0247700  30.8812460   6.0351750  83.2067070
  31.1833870   5.9969950  84.6896540  41.7032180   1.9918380  81.5134230
  40.9713300   2.5005190  81.8624330  41.3056520   1.1748360  81.2123010
  37.2151220   1.9785800  72.3076780  36.6468120   1.5304050  71.6812690
  37.9240220   2.3378580  71.7741930  32.2920400   5.8797820  86.1843510
  31.9075190   5.2391490  86.7826470  32.6032590   6.5833940  86.7538240
  38.4417540   2.7274360  81.6652130  38.8087670   2.2532930  82.4113470
  38.2522600   3.6015930  82.0060470  36.2316910   1.7683000  83.9836340
  35.9273980   2.6474980  84.2086700  37.1863370   1.8282790  84.0193780
  34.7598700   5.9743990  74.5803190  33.9860960   5.4341610  74.4201910
  35.4893330   5.4550600  74.2420950  45.5186680   4.9709350  80.3729580
  46.2385800   5.4664640  79.9825690  45.3168500   4.2927240  79.7283450
  40.9005480   5.0418410  86.2598580  40.8342790   4.1214080  86.0056170
  40.2710620   5.1393850  86.9743220  34.8036100   5.6424370  78.2182000
  35.3214770   4.8392630  78.1638890  34.3520120   5.5803510  79.0598830
  39.6905600   6.9090650  73.4909300  40.0321300   7.6532880  72.9952620
  38.8618310   7.2221770  73.8534130  32.2880640   2.6085740  85.1307700
  31.9295580   3.2739590  85.7181040  31.9935200   1.7769290  85.5020320
  35.4893760   3.0669980  88.0147250  35.1893900   3.2127160  87.1175070
  36.2605000   2.5075270  87.9220640  40.8322210   7.8638980  86.0102380
  40.8466750   6.9319940  85.7921290  40.1247310   7.9498740  86.6492150
  45.9659280   2.0478800  72.2800990  45.8823000   2.4793020  71.4297430
  46.6853470   2.5077150  72.7127810  47.0433420   4.5046320  85.3570960
  46.3181610   5.0975100  85.1600350  47.5708880   4.4969860  84.5584330
  46.9946530   8.9021060  75.0083120  46.3522690   8.2476680  75.2826840
  46.6077190   9.3076150  74.2323790  42.5733010   6.2306490  78.8554810
  42.9256830   5.6334620  78.1956180  41.6895340   5.9050720  79.0263060
  38.6596290   6.9904180  76.2625220  39.3467420   7.5373390  76.6432810
  37.8728710   7.5344910  76.2974830  30.7988690   2.6077000  71.7542300
  31.6683540   2.8901800  72.0378220  30.3079010   3.4212870  71.6391110
  37.9623500   3.9950210  75.8750580  38.4186280   4.8055460  76.1010770
  37.6111710   3.6773350  76.7069070  40.2656110   9.5056550  83.1042880
  40.9098330   9.7115930  83.7816300  40.6285550   8.7444950  82.6513730
  41.5388190   7.5088900  81.8220330  42.1810420   6.8082060  81.9352500
  42.0637540   8.2887340  81.6417220  45.3843910   7.7937520  71.5459470
  45.1581490   7.0767960  72.1384110  44.9940110   7.5449960  70.7081220
  43.3125810   8.3083800  85.0256390  43.6482050   8.8950490  85.7034310
  42.3926150   8.1776510  85.2554180  31.1659940  11.8204380  72.3203930
  31.5257580  12.4193720  71.6661200  31.0252280  12.3664270  73.0938960
  44.9660160   5.7109460  73.2073630  44.6781860   6.1722150  73.9951510
  45.7612330   5.2507230  73.4757850  31.1501800  10.0859240  86.7946330
  31.2592920   9.1453980  86.6541720  30.4982360  10.3513990  86.1460060
  39.1414390   8.3575130  88.1944450  38.8211260   7.6384370  88.7390140
  38.4672750   9.0330200  88.2680510  37.1828560   9.2035580  73.1377600
  37.1738660   9.9365270  72.5222110  36.2626920   8.9567160  73.2304560
  32.7835200   4.4250470  73.8824360  32.1763150   5.1649370  73.8919660
  33.2584550   4.5149830  73.0562560  40.1688160   9.2663820  71.8002790
  40.2700140   9.0627810  70.8704770  39.2689900   9.0122100  72.0050570
  38.8106270  11.7850140  76.4950460  39.0647770  11.7471530  75.5729830
  37.8618750  11.6583470  76.4878710  44.8158850   2.7042020  78.0708970
  43.8748990   2.7192250  78.2456660  45.1302920   1.9177980  78.5169270
  34.7940490   4.3861620  71.6312930  35.5603760   4.2742980  72.1938360
  34.8715180   3.6899590  70.9789700  46.8184430   9.8750870  79.7463230
  46.9431850  10.6982040  80.2187040  47.6849990   9.6641600  79.3987380
  34.2901960  11.9682080  79.4180360  35.0264440  11.4197540  79.6888930
  34.6742880  12.8338090  79.2786350  31.1747440   8.0355650  75.2921870
  30.2487220   8.2776790  75.2827280  31.6403870   8.8629910  75.1706620
  33.2960240  11.1528150  88.6065940  34.0972970  11.4740200  89.0201340
  32.7812060  10.7923730  89.3285850  37.4004270  11.1412390  71.2405930
  38.1932880  11.4301220  70.7887720  36.8808620  10.7104560  70.5618410
  42.1324870   7.2608020  88.5541350  41.5263030   7.2839620  87.8137100
  41.8278980   6.5291060  89.0908600  43.5625240  10.9888310  87.1650760
  44.5146990  10.9046330  87.1151000  43.4153460  11.6530020  87.8384550
  46.4534440  10.3682520  72.6642670  46.1675950   9.9547660  71.8496850
  46.2553990  11.2970230  72.5443190  31.0158050   3.6401610  87.5501990
  31.5197070   3.0608890  88.1218220  30.2765470   3.9241840  88.0878360
  37.9181670   6.3615800  71.1048280  37.8132310   5.7468150  71.8309660
  37.7505890   5.8381690  70.3211290  38.0695990   5.0472600  87.0837510
  37.3041660   5.6157600  86.9992180  38.2511950   4.7548810  86.1905740
  41.1584400   5.4235830  71.7090270  40.6094500   5.8705130  72.3533010
  41.7803660   4.9185080  72.2327940  45.2119340   6.7777930  87.6412530
  45.9528810   7.1153690  87.1379990  44.4492020   6.9469990  87.0882300
  33.0481130   1.7831200  88.4452060  33.0886470   1.4845070  89.3537290
  33.9026630   2.1838810  88.2859580  36.8259520   4.3826750  73.6055570
  37.2475940   4.2166620  74.4486960  36.9510360   3.5726980  73.1110710
  39.3387160   3.4064360  70.8532670  39.8592820   2.6913380  70.4873820
  39.9855560   4.0450230  71.1533180  43.8865000   4.8292760  86.1767740
  44.3006020   4.9837840  87.0258160  42.9516000   4.9547980  86.3393520
  44.3587170   2.1688920  88.1806890  44.9407940   1.4141240  88.0927370
  44.5348940   2.6996360  87.4038370  38.6480230   4.7813240  84.1463670
  39.0668340   5.6245970  83.9739910  37.7288860   4.9185280  83.9170450
  40.9844130   2.5129420  85.5301510  41.1040340   1.9170560  86.2696350
  41.8438130   2.5499110  85.1102810  43.3232030   3.0666610  84.1064020
  42.7967250   3.5909230  83.5029160  43.6663370   3.6994000  84.7373750
  36.4987650  11.0866250  85.2621400  35.9608740  11.8112310  84.9430100
  36.7521610  10.6096590  84.4718740  39.3549860  12.3217460  85.5208050
  39.2808560  13.2252600  85.8280420  38.4528700  12.0029360  85.4930120
  39.9035190  11.4875970  73.1434410  40.7985980  11.8260940  73.1653170
  39.9352820  10.7655380  72.5158690  33.5431350   6.8603020  71.3721410
  33.9806220   7.4032690  72.0278990  34.0279080   6.0349970  71.3817750
  30.7577150   9.6492050  78.8241670  31.0880160   8.7813110  78.5920310
  31.1868150   9.8550570  79.6546630  35.3539070   7.9801060  76.4843640
  35.0534610   7.8566030  77.3847550  35.2476560   7.1209650  76.0759370
  31.2467360  10.5162640  81.5623300  30.8098350  10.6963440  82.3947450
  31.8145040  11.2737260  81.4205020  46.8829540  10.0179640  85.8500610
  46.2831530  10.0772200  85.1064530  47.0123440   9.0784620  85.9797460
  48.1230990   7.7597460  71.1870320  47.2923950   7.8274110  71.6577550
  48.3002820   8.6501580  70.8837180  47.5787450   4.5044940  73.6904520
  48.3406360   5.0741590  73.7964210  47.5941820   3.9372140  74.4612830
  31.0791790   3.0282870  77.9212180  30.4240630   2.7594510  77.2771880
  31.9169740   2.9187350  77.4714160  48.5847420   5.3595040  78.5346450
  48.9556250   4.5762360  78.1282420  49.2249350   6.0484140  78.3563750
  45.5681180   6.7431620  83.9476770  44.7541020   7.1728780  84.2102560
  45.9755380   7.3550030  83.3345820  47.6306620   4.7979310  70.8477040
  47.9055460   5.7058190  70.7196260  47.4417360   4.7341840  71.7839030
  47.5271960   2.7348300  75.8406470  47.1515560   1.9676230  75.4087760
  46.7975080   3.1171000  76.3281400  32.1167720   3.4135440  82.4615520
  32.4840760   3.3262840  83.3411540  31.5478540   2.6501990  82.3622380
  46.9171580   1.8819820  85.4745990  46.6857670   1.6532570  84.5743940
  47.1776130   2.8019370  85.4290880  45.6257230  11.4950220  77.4745040
  46.2216300  11.1734790  76.7979460  45.8835380  11.0222040  78.2658310
  33.5319800   7.9268130  87.6235670  33.4889430   7.5561040  88.5050130
  33.6630810   8.8645700  87.7637490  37.2325830   9.4827720  83.2245390
  36.9917190   9.7502280  82.3375910  38.1728470   9.6533450  83.2796250
  48.4929990  11.5022100  84.0256030  47.9988270  11.8990970  83.3083160
  47.8843280  10.8771310  84.4193310  33.3707830  10.8730380  84.7433450
  32.7768150  10.7415080  85.4823490  33.3631670  10.0368520  84.2775550
  46.1769440  12.1445520  81.3042770  45.7172410  12.8961330  80.9300790
  45.5481900  11.4251990  81.2457570  33.0020060   8.2388760  83.6941490
  32.2754120   7.6194050  83.6267440  33.0629210   8.6329370  82.8239570
  36.6065160  10.4533760  80.4790900  37.1230180   9.8421120  79.9539160
  37.2562540  10.9562540  80.9701910  39.3460660  11.3442250  81.3059880
  39.6338470  11.0896550  80.4292890  39.8583880  10.7919610  81.8965450
  31.2850060  11.5563150  76.9038250  31.1172100  10.9233830  77.6020140
  30.4184570  11.7622550  76.5532440  32.8912760  10.2496380  74.3488390
  32.3660380  10.6304410  73.6450350  32.8157340  10.8747150  75.0698100
  39.4133020  12.2658350  88.6728080  40.3400330  12.0302620  88.7164040
  39.3983450  13.0930350  88.1914110  47.6478080  11.8083920  75.6702330
  47.8230270  11.1221660  75.0263250  46.9499650  12.3330970  75.2779000
  35.4905730  12.1978760  73.2237640  36.2224550  11.9138040  72.6761530
  35.7499400  11.9592040  74.1137020  34.6520520   8.3143490  73.2283970
  34.0229400   8.7828590  73.7769800  34.7668350   7.4692710  73.6630160
  45.9810580  11.4928210  88.4969120  46.7735900  10.9977440  88.2895080
  46.2743730  12.1718350  89.1044730  42.1070240   2.3649150  59.3785170
  42.0264290   1.4503760  59.1076880  41.6934660   2.8616220  58.6724880
  40.2388280   4.1428170  61.2594440  39.4630380   3.6628610  61.5493010
  40.8901210   3.4633820  61.0850600  34.2554110   4.4547980  62.1370200
  33.4238990   4.1996690  62.5366710  34.8635090   4.5258750  62.8728120
  44.2595710   8.5488360  60.0393570  43.7977240   7.7775600  60.3680740
  45.0721260   8.5754430  60.5446020  34.2355370   8.4888070  62.3328220
  34.5383410   7.5985810  62.1538440  34.9798960   9.0458290  62.1050470
  30.6279070   2.0155520  61.8052290  31.1995180   1.2477720  61.8055930
  30.6280610   2.3144280  60.8958900  40.4859020  10.8346370  59.6597560
  39.8670460  11.2903870  59.0892000  41.3410800  10.9897830  59.2587260
  39.6797270   6.8185360  61.2664600  39.6105550   5.8775300  61.1053730
  40.4417130   6.9086770  61.8387170  41.3522370   5.7185610  57.0529470
  40.7339640   6.1835060  56.4892190  41.8645620   6.4113090  57.4698980
  36.2154130   5.2461480  63.7313070  35.8823510   5.8730400  64.3734140
  36.3920810   5.7723360  62.9514740  35.4273230   7.2142280  65.5462250
  36.0447230   7.8893360  65.2646700  34.5666350   7.6230260  65.4549750
  30.7205570   6.4042140  54.4269100  30.3433550   6.8929240  53.6954000
  30.9778640   7.0767420  55.0575630  46.3450820   8.6781690  63.4616890
  45.6614340   9.3480800  63.4533560  46.8845110   8.8762340  62.6961750
  43.8809560  10.5225820  62.1762070  43.8936720  10.1188110  61.3084330
  43.3284780  11.2973110  62.0723500  45.1754980   7.2442040  57.2652240
  45.0651310   6.3016370  57.3901660  45.1723230   7.6057680  58.1515000
  43.2795000   5.4255660  63.5044680  43.6963790   5.2115770  62.6698140
  44.0034820   5.6828450  64.0753300  40.7175260   2.8707360  56.6214730
  39.7904540   2.8044740  56.8503200  40.8700080   3.8087490  56.5069970
  47.2257100   3.8242880  63.5960920  46.3975730   3.8935970  63.1211050
  47.8207580   4.4097190  63.1276750  44.7472550   4.4327660  57.1249980
  44.1284970   4.0947210  56.4776280  44.7297000   3.7887420  57.8329170
  36.3231900   3.3972100  59.4034460  35.9188900   2.6849350  58.9080360
  36.4095020   3.0525340  60.2922500  36.7913600   7.0839660  61.5673670
  36.4941890   6.4785130  60.8881450  37.7413420   7.1216970  61.4563030
  44.8799210  10.6571530  65.2296770  44.4029770  11.4643720  65.0369380
  44.1961000  10.0049860  65.3822980  35.8832030   6.8221350  68.2181470
  34.9860560   7.0461320  68.4654870  35.9084900   6.9456290  67.2692870
  42.9237250   3.6714470  54.1322730  43.3630530   2.8336900  53.9860550
  43.6365670   4.3043870  54.2186870  34.7103250   3.6934670  66.7938840
  34.5711020   4.5657470  67.1626240  33.8284610   3.3507480  66.6486780
  41.0332630   8.6110540  58.1003970  41.4728540   9.3534870  57.6859360
  40.9719520   8.8537110  59.0242930  36.5083600   9.6356370  69.0023990
  36.4799030  10.0399320  68.1352420  36.3448570   8.7066730  68.8395590
  33.0236530   2.2917080  56.9041110  32.9034130   3.0179170  56.2922380
  32.7137420   1.5219990  56.4269020  48.4598420  10.4183470  70.2988160
  48.9358140  10.8966360  70.9777240  49.0805580  10.3500960  69.5733660
  30.6621900   5.4632220  62.7109750  30.7402320   5.5980990  61.7665470
  31.2763580   4.7548110  62.9037870  31.9069530   7.1632410  59.1215930
  31.4997610   7.3047000  58.2669530  32.7982540   6.8792570  58.9187140
  47.8631670   7.6096320  67.4588170  47.9894730   7.3708200  66.5405350
  47.9053050   6.7780860  67.9310250  41.7248410  11.3124320  66.0282980
  42.2393080  11.2232330  66.8305410  40.8817490  11.6584020  66.3210890
  43.7002810  11.5979660  55.4566980  43.5403950  11.3082600  56.3548810
  43.5349520  10.8219790  54.9212210  36.1791190  11.3778190  57.2338600
  36.0033670  10.4613730  57.0206400  35.3246930  11.7365480  57.4736400
  43.4028940   9.1067220  54.0164980  42.7094100   9.1044510  53.3567260
  44.1451800   8.6826540  53.5859150  42.9678870  10.7329930  58.0913470
  43.4235820   9.9519310  58.4052090  43.3071390  11.4436750  58.6354650
  30.7181420   6.5046390  65.2504210  30.8812460   6.0351750  64.4323580
  31.1833870   5.9969950  65.9153050  41.7032180   1.9918380  62.7390740
  40.9713300   2.5005190  63.0880840  41.3056520   1.1748360  62.4379520
  37.2151220   1.9785800  53.5333290  36.6468120   1.5304050  52.9069200
  37.9240220   2.3378580  52.9998440  32.2920400   5.8797820  67.4100020
  31.9075190   5.2391490  68.0082980  32.6032590   6.5833940  67.9794750
  38.4417540   2.7274360  62.8908640  38.8087670   2.2532930  63.6369980
  38.2522600   3.6015930  63.2316980  36.2316910   1.7683000  65.2092850
  35.9273980   2.6474980  65.4343210  37.1863370   1.8282790  65.2450290
  34.7598700   5.9743990  55.8059700  33.9860960   5.4341610  55.6458420
  35.4893330   5.4550600  55.4677460  45.5186680   4.9709350  61.5986090
  46.2385800   5.4664640  61.2082200  45.3168500   4.2927240  60.9539960
  40.9005480   5.0418410  67.4855090  40.8342790   4.1214080  67.2312680
  40.2710620   5.1393850  68.1999730  34.8036100   5.6424370  59.4438510
  35.3214770   4.8392630  59.3895400  34.3520120   5.5803510  60.2855340
  39.6905600   6.9090650  54.7165810  40.0321300   7.6532880  54.2209130
  38.8618310   7.2221770  55.0790640  32.2880640   2.6085740  66.3564210
  31.9295580   3.2739590  66.9437550  31.9935200   1.7769290  66.7276830
  35.4893760   3.0669980  69.2403760  35.1893900   3.2127160  68.3431580
  36.2605000   2.5075270  69.1477150  40.8322210   7.8638980  67.2358890
  40.8466750   6.9319940  67.0177800  40.1247310   7.9498740  67.8748660
  45.9659280   2.0478800  53.5057500  45.8823000   2.4793020  52.6553940
  46.6853470   2.5077150  53.9384320  47.0433420   4.5046320  66.5827470
  46.3181610   5.0975100  66.3856860  47.5708880   4.4969860  65.7840840
  46.9946530   8.9021060  56.2339630  46.3522690   8.2476680  56.5083350
  46.6077190   9.3076150  55.4580300  42.5733010   6.2306490  60.0811320
  42.9256830   5.6334620  59.4212690  41.6895340   5.9050720  60.2519570
  38.6596290   6.9904180  57.4881730  39.3467420   7.5373390  57.8689320
  37.8728710   7.5344910  57.5231340  30.7988690   2.6077000  52.9798810
  31.6683540   2.8901800  53.2634730  30.3079010   3.4212870  52.8647620
  37.9623500   3.9950210  57.1007090  38.4186280   4.8055460  57.3267280
  37.6111710   3.6773350  57.9325580  40.2656110   9.5056550  64.3299390
  40.9098330   9.7115930  65.0072810  40.6285550   8.7444950  63.8770240
  41.5388190   7.5088900  63.0476840  42.1810420   6.8082060  63.1609010
  42.0637540   8.2887340  62.8673730  45.3843910   7.7937520  52.7715980
  45.1581490   7.0767960  53.3640620  44.9940110   7.5449960  51.9337730
  43.3125810   8.3083800  66.2512900  43.6482050   8.8950490  66.9290820
  42.3926150   8.1776510  66.4810690  31.1659940  11.8204380  53.5460440
  31.5257580  12.4193720  52.8917710  31.0252280  12.3664270  54.3195470
  44.9660160   5.7109460  54.4330140  44.6781860   6.1722150  55.2208020
  45.7612330   5.2507230  54.7014360  31.1501800  10.0859240  68.0202840
  31.2592920   9.1453980  67.8798230  30.4982360  10.3513990  67.3716570
  39.1414390   8.3575130  69.4200960  38.8211260   7.6384370  69.9646650
  38.4672750   9.0330200  69.4937020  37.1828560   9.2035580  54.3634110
  37.1738660   9.9365270  53.7478620  36.2626920   8.9567160  54.4561070
  32.7835200   4.4250470  55.1080870  32.1763150   5.1649370  55.1176170
  33.2584550   4.5149830  54.2819070  40.1688160   9.2663820  53.0259300
  40.2700140   9.0627810  52.0961280  39.2689900   9.0122100  53.2307080
  38.8106270  11.7850140  57.7206970  39.0647770  11.7471530  56.7986340
  37.8618750  11.6583470  57.7135220  44.8158850   2.7042020  59.2965480
  43.8748990   2.7192250  59.4713170  45.1302920   1.9177980  59.7425780
  34.7940490   4.3861620  52.8569440  35.5603760   4.2742980  53.4194870
  34.8715180   3.6899590  52.2046210  46.8184430   9.8750870  60.9719740
  46.9431850  10.6982040  61.4443550  47.6849990   9.6641600  60.6243890
  34.2901960  11.9682080  60.6436870  35.0264440  11.4197540  60.9145440
  34.6742880  12.8338090  60.5042860  31.1747440   8.0355650  56.5178380
  30.2487220   8.2776790  56.5083790  31.6403870   8.8629910  56.3963130
  33.2960240  11.1528150  69.8322450  34.0972970  11.4740200  70.2457850
  32.7812060  10.7923730  70.5542360  37.4004270  11.1412390  52.4662440
  38.1932880  11.4301220  52.0144230  36.8808620  10.7104560  51.7874920
  42.1324870   7.2608020  69.7797860  41.5263030   7.2839620  69.0393610
  41.8278980   6.5291060  70.3165110  43.5625240  10.9888310  68.3907270
  44.5146990  10.9046330  68.3407510  43.4153460  11.6530020  69.0641060
  46.4534440  10.3682520  53.8899180  46.1675950   9.9547660  53.0753360
  46.2553990  11.2970230  53.7699700  31.0158050   3.6401610  68.7758500
  31.5197070   3.0608890  69.3474730  30.2765470   3.9241840  69.3134870
  37.9181670   6.3615800  52.3304790  37.8132310   5.7468150  53.0566170
  37.7505890   5.8381690  51.5467800  38.0695990   5.0472600  68.3094020
  37.3041660   5.6157600  68.2248690  38.2511950   4.7548810  67.4162250
  41.1584400   5.4235830  52.9346780  40.6094500   5.8705130  53.5789520
  41.7803660   4.9185080  53.4584450  45.2119340   6.7777930  68.8669040
  45.9528810   7.1153690  68.3636500  44.4492020   6.9469990  68.3138810
  33.0481130   1.7831200  69.6708570  33.0886470   1.4845070  70.5793800
  33.9026630   2.1838810  69.5116090  36.8259520   4.3826750  54.8312080
  37.2475940   4.2166620  55.6743470  36.9510360   3.5726980  54.3367220
  39.3387160   3.4064360  52.0789180  39.8592820   2.6913380  51.7130330
  39.9855560   4.0450230  52.3789690  43.8865000   4.8292760  67.4024250
  44.3006020   4.9837840  68.2514670  42.9516000   4.9547980  67.5650030
  44.3587170   2.1688920  69.4063400  44.9407940   1.4141240  69.3183880
  44.5348940   2.6996360  68.6294880  38.6480230   4.7813240  65.3720180
  39.0668340   5.6245970  65.1996420  37.7288860   4.9185280  65.1426960
  40.9844130   2.5129420  66.7558020  41.1040340   1.9170560  67.4952860
  41.8438130   2.5499110  66.3359320  43.3232030   3.0666610  65.3320530
  42.7967250   3.5909230  64.7285670  43.6663370   3.6994000  65.9630260
  36.4987650  11.0866250  66.4877910  35.9608740  11.8112310  66.1686610
  36.7521610  10.6096590  65.6975250  39.3549860  12.3217460  66.7464560
  39.2808560  13.2252600  67.0536930  38.4528700  12.0029360  66.7186630
  39.9035190  11.4875970  54.3690920  40.7985980  11.8260940  54.3909680
  39.9352820  10.7655380  53.7415200  33.5431350   6.8603020  52.5977920
  33.9806220   7.4032690  53.2535500  34.0279080   6.0349970  52.6074260
  30.7577150   9.6492050  60.0498180  31.0880160   8.7813110  59.8176820
  31.1868150   9.8550570  60.8803140  35.3539070   7.9801060  57.7100150
  35.0534610   7.8566030  58.6104060  35.2476560   7.1209650  57.3015880
  31.2467360  10.5162640  62.7879810  30.8098350  10.6963440  63.6203960
  31.8145040  11.2737260  62.6461530  46.8829540  10.0179640  67.0757120
  46.2831530  10.0772200  66.3321040  47.0123440   9.0784620  67.2053970
  48.1230990   7.7597460  52.4126830  47.2923950   7.8274110  52.8834060
  48.3002820   8.6501580  52.1093690  47.5787450   4.5044940  54.9161030
  48.3406360   5.0741590  55.0220720  47.5941820   3.9372140  55.6869340
  31.0791790   3.0282870  59.1468690  30.4240630   2.7594510  58.5028390
  31.9169740   2.9187350  58.6970670  48.5847420   5.3595040  59.7602960
  48.9556250   4.5762360  59.3538930  49.2249350   6.0484140  59.5820260
  45.5681180   6.7431620  65.1733280  44.7541020   7.1728780  65.4359070
  45.9755380   7.3550030  64.5602330  47.6306620   4.7979310  52.0733550
  47.9055460   5.7058190  51.9452770  47.4417360   4.7341840  53.0095540
  47.5271960   2.7348300  57.0662980  47.1515560   1.9676230  56.6344270
  46.7975080   3.1171000  57.5537910  32.1167720   3.4135440  63.6872030
  32.4840760   3.3262840  64.5668050  31.5478540   2.6501990  63.5878890
  46.9171580   1.8819820  66.7002500  46.6857670   1.6532570  65.8000450
  47.1776130   2.8019370  66.6547390  45.6257230  11.4950220  58.7001550
  46.2216300  11.1734790  58.0235970  45.8835380  11.0222040  59.4914820
  33.5319800   7.9268130  68.8492180  33.4889430   7.5561040  69.7306640
  33.6630810   8.8645700  68.9894000  37.2325830   9.4827720  64.4501900
  36.9917190   9.7502280  63.5632420  38.1728470   9.6533450  64.5052760
  48.4929990  11.5022100  65.2512540  47.9988270  11.8990970  64.5339670
  47.8843280  10.8771310  65.6449820  33.3707830  10.8730380  65.9689960
  32.7768150  10.7415080  66.7080000  33.3631670  10.0368520  65.5032060
  46.1769440  12.1445520  62.5299280  45.7172410  12.8961330  62.1557300
  45.5481900  11.4251990  62.4714080  33.0020060   8.2388760  64.9198000
  32.2754120   7.6194050  64.8523950  33.0629210   8.6329370  64.0496080
  36.6065160  10.4533760  61.7047410  37.1230180   9.8421120  61.1795670
  37.2562540  10.9562540  62.1958420  39.3460660  11.3442250  62.5316390
  39.6338470  11.0896550  61.6549400  39.8583880  10.7919610  63.1221960
  31.2850060  11.5563150  58.1294760  31.1172100  10.9233830  58.8276650
  30.4184570  11.7622550  57.7788950  32.8912760  10.2496380  55.5744900
  32.3660380  10.6304410  54.8706860  32.8157340  10.8747150  56.2954610
  39.4133020  12.2658350  69.8984590  40.3400330  12.0302620  69.9420550
  39.3983450  13.0930350  69.4170620  47.6478080  11.8083920  56.8958840
  47.8230270  11.1221660  56.2519760  46.9499650  12.3330970  56.5035510
  35.4905730  12.1978760  54.4494150  36.2224550  11.9138040  53.9018040
  35.7499400  11.9592040  55.3393530  34.6520520   8.3143490  54.4540480
  34.0229400   8.7828590  55.0026310  34.7668350   7.4692710  54.8886670
  45.9810580  11.4928210  69.7225630  46.7735900  10.9977440  69.5151590
  46.2743730  12.1718350  70.3301240  42.1070240   2.3649150  40.6041680
  42.0264290   1.4503760  40.3333390  41.6934660   2.8616220  39.8981390
  40.2388280   4.1428170  42.4850950  39.4630380   3.6628610  42.7749520
  40.8901210   3.4633820  42.3107110  34.2554110   4.4547980  43.3626710
  33.4238990   4.1996690  43.7623220  34.8635090   4.5258750  44.0984630
  44.2595710   8.5488360  41.2650080  43.7977240   7.7775600  41.5937250
  45.0721260   8.5754430  41.7702530  34.2355370   8.4888070  43.5584730
  34.5383410   7.5985810  43.3794950  34.9798960   9.0458290  43.3306980
  30.6279070   2.0155520  43.0308800  31.1995180   1.2477720  43.0312440
  30.6280610   2.3144280  42.1215410  40.4859020  10.8346370  40.8854070
  39.8670460  11.2903870  40.3148510  41.3410800  10.9897830  40.4843770
  39.6797270   6.8185360  42.4921110  39.6105550   5.8775300  42.3310240
  40.4417130   6.9086770  43.0643680  41.3522370   5.7185610  38.2785980
  40.7339640   6.1835060  37.7148700  41.8645620   6.4113090  38.6955490
  36.2154130   5.2461480  44.9569580  35.8823510   5.8730400  45.5990650
  36.3920810   5.7723360  44.1771250  35.4273230   7.2142280  46.7718760
  36.0447230   7.8893360  46.4903210  34.5666350   7.6230260  46.6806260
  30.7205570   6.4042140  35.6525610  30.3433550   6.8929240  34.9210510
  30.9778640   7.0767420  36.2832140  46.3450820   8.6781690  44.6873400
  45.6614340   9.3480800  44.6790070  46.8845110   8.8762340  43.9218260
  43.8809560  10.5225820  43.4018580  43.8936720  10.1188110  42.5340840
  43.3284780  11.2973110  43.2980010  45.1754980   7.2442040  38.4908750
  45.0651310   6.3016370  38.6158170  45.1723230   7.6057680  39.3771510
  43.2795000   5.4255660  44.7301190  43.6963790   5.2115770  43.8954650
  44.0034820   5.6828450  45.3009810  40.7175260   2.8707360  37.8471240
  39.7904540   2.8044740  38.0759710  40.8700080   3.8087490  37.7326480
  47.2257100   3.8242880  44.8217430  46.3975730   3.8935970  44.3467560
  47.8207580   4.4097190  44.3533260  44.7472550   4.4327660  38.3506490
  44.1284970   4.0947210  37.7032790  44.7297000   3.7887420  39.0585680
  36.3231900   3.3972100  40.6290970  35.9188900   2.6849350  40.1336870
  36.4095020   3.0525340  41.5179010  36.7913600   7.0839660  42.7930180
  36.4941890   6.4785130  42.1137960  37.7413420   7.1216970  42.6819540
  44.8799210  10.6571530  46.4553280  44.4029770  11.4643720  46.2625890
  44.1961000  10.0049860  46.6079490  35.8832030   6.8221350  49.4437980
  34.9860560   7.0461320  49.6911380  35.9084900   6.9456290  48.4949380
  42.9237250   3.6714470  35.3579240  43.3630530   2.8336900  35.2117060
  43.6365670   4.3043870  35.4443380  34.7103250   3.6934670  48.0195350
  34.5711020   4.5657470  48.3882750  33.8284610   3.3507480  47.8743290
  41.0332630   8.6110540  39.3260480  41.4728540   9.3534870  38.9115870
  40.9719520   8.8537110  40.2499440  36.5083600   9.6356370  50.2280500
  36.4799030  10.0399320  49.3608930  36.3448570   8.7066730  50.0652100
  33.0236530   2.2917080  38.1297620  32.9034130   3.0179170  37.5178890
  32.7137420   1.5219990  37.6525530  48.4598420  10.4183470  51.5244670
  48.9358140  10.8966360  52.2033750  49.0805580  10.3500960  50.7990170
  30.6621900   5.4632220  43.9366260  30.7402320   5.5980990  42.9921980
  31.2763580   4.7548110  44.1294380  31.9069530   7.1632410  40.3472440
  31.4997610   7.3047000  39.4926040  32.7982540   6.8792570  40.1443650
  47.8631670   7.6096320  48.6844680  47.9894730   7.3708200  47.7661860
  47.9053050   6.7780860  49.1566760  41.7248410  11.3124320  47.2539490
  42.2393080  11.2232330  48.0561920  40.8817490  11.6584020  47.5467400
  36.1791190  11.3778190  38.4595110  36.0033670  10.4613730  38.2462910
  35.3246930  11.7365480  38.6992910  43.4028940   9.1067220  35.2421490
  42.7094100   9.1044510  34.5823770  44.1451800   8.6826540  34.8115660
  42.9678870  10.7329930  39.3169980  43.4235820   9.9519310  39.6308600
  43.3071390  11.4436750  39.8611160  30.7181420   6.5046390  46.4760720
  30.8812460   6.0351750  45.6580090  31.1833870   5.9969950  47.1409560
  41.7032180   1.9918380  43.9647250  40.9713300   2.5005190  44.3137350
  41.3056520   1.1748360  43.6636030  37.2151220   1.9785800  34.7589800
  36.6468120   1.5304050  34.1325710  37.9240220   2.3378580  34.2254950
  32.2920400   5.8797820  48.6356530  31.9075190   5.2391490  49.2339490
  32.6032590   6.5833940  49.2051260  38.4417540   2.7274360  44.1165150
  38.8087670   2.2532930  44.8626490  38.2522600   3.6015930  44.4573490
  36.2316910   1.7683000  46.4349360  35.9273980   2.6474980  46.6599720
  37.1863370   1.8282790  46.4706800  34.7598700   5.9743990  37.0316210
  33.9860960   5.4341610  36.8714930  35.4893330   5.4550600  36.6933970
  45.5186680   4.9709350  42.8242600  46.2385800   5.4664640  42.4338710
  45.3168500   4.2927240  42.1796470  40.9005480   5.0418410  48.7111600
  40.8342790   4.1214080  48.4569190  40.2710620   5.1393850  49.4256240
  34.8036100   5.6424370  40.6695020  35.3214770   4.8392630  40.6151910
  34.3520120   5.5803510  41.5111850  39.6905600   6.9090650  35.9422320
  40.0321300   7.6532880  35.4465640  38.8618310   7.2221770  36.3047150
  32.2880640   2.6085740  47.5820720  31.9295580   3.2739590  48.1694060
  31.9935200   1.7769290  47.9533340  35.4893760   3.0669980  50.4660270
  35.1893900   3.2127160  49.5688090  36.2605000   2.5075270  50.3733660
  40.8322210   7.8638980  48.4615400  40.8466750   6.9319940  48.2434310
  40.1247310   7.9498740  49.1005170  45.9659280   2.0478800  34.7314010
  45.8823000   2.4793020  33.8810450  46.6853470   2.5077150  35.1640830
  47.0433420   4.5046320  47.8083980  46.3181610   5.0975100  47.6113370
  47.5708880   4.4969860  47.0097350  46.9946530   8.9021060  37.4596140
  46.3522690   8.2476680  37.7339860  46.6077190   9.3076150  36.6836810
  42.5733010   6.2306490  41.3067830  42.9256830   5.6334620  40.6469200
  41.6895340   5.9050720  41.4776080  38.6596290   6.9904180  38.7138240
  39.3467420   7.5373390  39.0945830  37.8728710   7.5344910  38.7487850
  30.7988690   2.6077000  34.2055320  31.6683540   2.8901800  34.4891240
  30.3079010   3.4212870  34.0904130  37.9623500   3.9950210  38.3263600
  38.4186280   4.8055460  38.5523790  37.6111710   3.6773350  39.1582090
  40.2656110   9.5056550  45.5555900  40.9098330   9.7115930  46.2329320
  40.6285550   8.7444950  45.1026750  41.5388190   7.5088900  44.2733350
  42.1810420   6.8082060  44.3865520  42.0637540   8.2887340  44.0930240
  45.3843910   7.7937520  33.9972490  45.1581490   7.0767960  34.5897130
  44.9940110   7.5449960  33.1594240  43.3125810   8.3083800  47.4769410
  43.6482050   8.8950490  48.1547330  42.3926150   8.1776510  47.7067200
  31.1659940  11.8204380  34.7716950  31.5257580  12.4193720  34.1174220
  31.0252280  12.3664270  35.5451980  44.9660160   5.7109460  35.6586650
  44.6781860   6.1722150  36.4464530  45.7612330   5.2507230  35.9270870
  31.1501800  10.0859240  49.2459350  31.2592920   9.1453980  49.1054740
  30.4982360  10.3513990  48.5973080  39.1414390   8.3575130  50.6457470
  38.8211260   7.6384370  51.1903160  38.4672750   9.0330200  50.7193530
  37.1828560   9.2035580  35.5890620  37.1738660   9.9365270  34.9735130
  36.2626920   8.9567160  35.6817580  32.7835200   4.4250470  36.3337380
  32.1763150   5.1649370  36.3432680  33.2584550   4.5149830  35.5075580
  40.1688160   9.2663820  34.2515810  40.2700140   9.0627810  33.3217790
  39.2689900   9.0122100  34.4563590  38.8106270  11.7850140  38.9463480
  39.0647770  11.7471530  38.0242850  37.8618750  11.6583470  38.9391730
  44.8158850   2.7042020  40.5221990  43.8748990   2.7192250  40.6969680
  45.1302920   1.9177980  40.9682290  34.7940490   4.3861620  34.0825950
  35.5603760   4.2742980  34.6451380  34.8715180   3.6899590  33.4302720
  46.8184430   9.8750870  42.1976250  46.9431850  10.6982040  42.6700060
  47.6849990   9.6641600  41.8500400  34.2901960  11.9682080  41.8693380
  35.0264440  11.4197540  42.1401950  34.6742880  12.8338090  41.7299370
  31.1747440   8.0355650  37.7434890  30.2487220   8.2776790  37.7340300
  31.6403870   8.8629910  37.6219640  33.2960240  11.1528150  51.0578960
  34.0972970  11.4740200  51.4714360  32.7812060  10.7923730  51.7798870
  37.4004270  11.1412390  33.6918950  38.1932880  11.4301220  33.2400740
  36.8808620  10.7104560  33.0131430  42.1324870   7.2608020  51.0054370
  41.5263030   7.2839620  50.2650120  41.8278980   6.5291060  51.5421620
  43.5625240  10.9888310  49.6163780  44.5146990  10.9046330  49.5664020
  43.4153460  11.6530020  50.2897570  46.4534440  10.3682520  35.1155690
  46.1675950   9.9547660  34.3009870  46.2553990  11.2970230  34.9956210
  31.0158050   3.6401610  50.0015010  31.5197070   3.0608890  50.5731240
  30.2765470   3.9241840  50.5391380  37.9181670   6.3615800  33.5561300
  37.8132310   5.7468150  34.2822680  37.7505890   5.8381690  32.7724310
  38.0695990   5.0472600  49.5350530  37.3041660   5.6157600  49.4505200
  38.2511950   4.7548810  48.6418760  41.1584400   5.4235830  34.1603290
  40.6094500   5.8705130  34.8046030  41.7803660   4.9185080  34.6840960
  45.2119340   6.7777930  50.0925550  45.9528810   7.1153690  49.5893010
  44.4492020   6.9469990  49.5395320  33.0481130   1.7831200  50.8965080
  33.0886470   1.4845070  51.8050310  33.9026630   2.1838810  50.7372600
  36.8259520   4.3826750  36.0568590  37.2475940   4.2166620  36.8999980
  36.9510360   3.5726980  35.5623730  39.3387160   3.4064360  33.3045690
  39.8592820   2.6913380  32.9386840  39.9855560   4.0450230  33.6046200
  43.8865000   4.8292760  48.6280760  44.3006020   4.9837840  49.4771180
  42.9516000   4.9547980  48.7906540  44.3587170   2.1688920  50.6319910
  44.9407940   1.4141240  50.5440390  44.5348940   2.6996360  49.8551390
  38.6480230   4.7813240  46.5976690  39.0668340   5.6245970  46.4252930
  37.7288860   4.9185280  46.3683470  40.9844130   2.5129420  47.9814530
  41.1040340   1.9170560  48.7209370  41.8438130   2.5499110  47.5615830
  43.3232030   3.0666610  46.5577040  42.7967250   3.5909230  45.9542180
  43.6663370   3.6994000  47.1886770  36.4987650  11.0866250  47.7134420
  35.9608740  11.8112310  47.3943120  36.7521610  10.6096590  46.9231760
  39.3549860  12.3217460  47.9721070  39.2808560  13.2252600  48.2793440
  38.4528700  12.0029360  47.9443140  39.9035190  11.4875970  35.5947430
  40.7985980  11.8260940  35.6166190  39.9352820  10.7655380  34.9671710
  33.5431350   6.8603020  33.8234430  33.9806220   7.4032690  34.4792010
  34.0279080   6.0349970  33.8330770  30.7577150   9.6492050  41.2754690
  31.0880160   8.7813110  41.0433330  31.1868150   9.8550570  42.1059650
  35.3539070   7.9801060  38.9356660  35.0534610   7.8566030  39.8360570
  35.2476560   7.1209650  38.5272390  31.2467360  10.5162640  44.0136320
  30.8098350  10.6963440  44.8460470  31.8145040  11.2737260  43.8718040
  46.8829540  10.0179640  48.3013630  46.2831530  10.0772200  47.5577550
  47.0123440   9.0784620  48.4310480  48.1230990   7.7597460  33.6383340
  47.2923950   7.8274110  34.1090570  48.3002820   8.6501580  33.3350200
  47.5787450   4.5044940  36.1417540  48.3406360   5.0741590  36.2477230
  47.5941820   3.9372140  36.9125850  31.0791790   3.0282870  40.3725200
  30.4240630   2.7594510  39.7284900  31.9169740   2.9187350  39.9227180
  48.5847420   5.3595040  40.9859470  48.9556250   4.5762360  40.5795440
  49.2249350   6.0484140  40.8076770  45.5681180   6.7431620  46.3989790
  44.7541020   7.1728780  46.6615580  45.9755380   7.3550030  45.7858840
  47.6306620   4.7979310  33.2990060  47.9055460   5.7058190  33.1709280
  47.4417360   4.7341840  34.2352050  47.5271960   2.7348300  38.2919490
  47.1515560   1.9676230  37.8600780  46.7975080   3.1171000  38.7794420
  32.1167720   3.4135440  44.9128540  32.4840760   3.3262840  45.7924560
  31.5478540   2.6501990  44.8135400  46.9171580   1.8819820  47.9259010
  46.6857670   1.6532570  47.0256960  47.1776130   2.8019370  47.8803900
  45.6257230  11.4950220  39.9258060  46.2216300  11.1734790  39.2492480
  45.8835380  11.0222040  40.7171330  33.5319800   7.9268130  50.0748690
  33.4889430   7.5561040  50.9563150  33.6630810   8.8645700  50.2150510
  37.2325830   9.4827720  45.6758410  36.9917190   9.7502280  44.7888930
  38.1728470   9.6533450  45.7309270  48.4929990  11.5022100  46.4769050
  47.9988270  11.8990970  45.7596180  47.8843280  10.8771310  46.8706330
  33.3707830  10.8730380  47.1946470  32.7768150  10.7415080  47.9336510
  33.3631670  10.0368520  46.7288570  46.1769440  12.1445520  43.7555790
  45.7172410  12.8961330  43.3813810  45.5481900  11.4251990  43.6970590
  33.0020060   8.2388760  46.1454510  32.2754120   7.6194050  46.0780460
  33.0629210   8.6329370  45.2752590  36.6065160  10.4533760  42.9303920
  37.1230180   9.8421120  42.4052180  37.2562540  10.9562540  43.4214930
  39.3460660  11.3442250  43.7572900  39.6338470  11.0896550  42.8805910
  39.8583880  10.7919610  44.3478470  31.2850060  11.5563150  39.3551270
  31.1172100  10.9233830  40.0533160  30.4184570  11.7622550  39.0045460
  32.8912760  10.2496380  36.8001410  32.3660380  10.6304410  36.0963370
  32.8157340  10.8747150  37.5211120  39.4133020  12.2658350  51.1241100
  40.3400330  12.0302620  51.1677060  39.3983450  13.0930350  50.6427130
  47.6478080  11.8083920  38.1215350  47.8230270  11.1221660  37.4776270
  46.9499650  12.3330970  37.7292020  35.4905730  12.1978760  35.6750660
  36.2224550  11.9138040  35.1274550  35.7499400  11.9592040  36.5650040
  34.6520520   8.3143490  35.6796990  34.0229400   8.7828590  36.2282820
  34.7668350   7.4692710  36.1143180  45.9810580  11.4928210  50.9482140
  46.7735900  10.9977440  50.7408100  46.2743730  12.1718350  51.5557750
  42.1070240   2.3649150  21.8298190  42.0264290   1.4503760  21.5589900
  41.6934660   2.8616220  21.1237900  40.2388280   4.1428170  23.7107460
  39.4630380   3.6628610  24.0006030  40.8901210   3.4633820  23.5363620
  34.2554110   4.4547980  24.5883220  33.4238990   4.1996690  24.9879730
  34.8635090   4.5258750  25.3241140  44.2595710   8.5488360  22.4906590
  43.7977240   7.7775600  22.8193760  45.0721260   8.5754430  22.9959040
  34.2355370   8.4888070  24.7841240  34.5383410   7.5985810  24.6051460
  34.9798960   9.0458290  24.5563490  30.6279070   2.0155520  24.2565310
  31.1995180   1.2477720  24.2568950  30.6280610   2.3144280  23.3471920
  40.4859020  10.8346370  22.1110580  39.8670460  11.2903870  21.5405020
  41.3410800  10.9897830  21.7100280  39.6797270   6.8185360  23.7177620
  39.6105550   5.8775300  23.5566750  40.4417130   6.9086770  24.2900190
  41.3522370   5.7185610  19.5042490  40.7339640   6.1835060  18.9405210
  41.8645620   6.4113090  19.9212000  36.2154130   5.2461480  26.1826090
  35.8823510   5.8730400  26.8247160  36.3920810   5.7723360  25.4027760
  35.4273230   7.2142280  27.9975270  36.0447230   7.8893360  27.7159720
  34.5666350   7.6230260  27.9062770  30.7205570   6.4042140  16.8782120
  30.3433550   6.8929240  16.1467020  30.9778640   7.0767420  17.5088650
  46.3450820   8.6781690  25.9129910  45.6614340   9.3480800  25.9046580
  46.8845110   8.8762340  25.1474770  43.8809560  10.5225820  24.6275090
  43.8936720  10.1188110  23.7597350  43.3284780  11.2973110  24.5236520
  45.1754980   7.2442040  19.7165260  45.0651310   6.3016370  19.8414680
  45.1723230   7.6057680  20.6028020  43.2795000   5.4255660  25.9557700
  43.6963790   5.2115770  25.1211160  44.0034820   5.6828450  26.5266320
  40.7175260   2.8707360  19.0727750  39.7904540   2.8044740  19.3016220
  40.8700080   3.8087490  18.9582990  47.2257100   3.8242880  26.0473940
  46.3975730   3.8935970  25.5724070  47.8207580   4.4097190  25.5789770
  44.7472550   4.4327660  19.5763000  44.1284970   4.0947210  18.9289300
  44.7297000   3.7887420  20.2842190  36.3231900   3.3972100  21.8547480
  35.9188900   2.6849350  21.3593380  36.4095020   3.0525340  22.7435520
  36.7913600   7.0839660  24.0186690  36.4941890   6.4785130  23.3394470
  37.7413420   7.1216970  23.9076050  44.8799210  10.6571530  27.6809790
  44.4029770  11.4643720  27.4882400  44.1961000  10.0049860  27.8336000
  35.8832030   6.8221350  30.6694490  34.9860560   7.0461320  30.9167890
  35.9084900   6.9456290  29.7205890  42.9237250   3.6714470  16.5835750
  43.3630530   2.8336900  16.4373570  43.6365670   4.3043870  16.6699890
  34.7103250   3.6934670  29.2451860  34.5711020   4.5657470  29.6139260
  33.8284610   3.3507480  29.0999800  41.0332630   8.6110540  20.5516990
  41.4728540   9.3534870  20.1372380  40.9719520   8.8537110  21.4755950
  36.5083600   9.6356370  31.4537010  36.4799030  10.0399320  30.5865440
  36.3448570   8.7066730  31.2908610  33.0236530   2.2917080  19.3554130
  32.9034130   3.0179170  18.7435400  32.7137420   1.5219990  18.8782040
  48.4598420  10.4183470  32.7501180  48.9358140  10.8966360  33.4290260
  49.0805580  10.3500960  32.0246680  30.6621900   5.4632220  25.1622770
  30.7402320   5.5980990  24.2178490  31.2763580   4.7548110  25.3550890
  31.9069530   7.1632410  21.5728950  31.4997610   7.3047000  20.7182550
  32.7982540   6.8792570  21.3700160  47.8631670   7.6096320  29.9101190
  47.9894730   7.3708200  28.9918370  47.9053050   6.7780860  30.3823270
  41.7248410  11.3124320  28.4796000  42.2393080  11.2232330  29.2818430
  40.8817490  11.6584020  28.7723910  43.7002810  11.5979660  17.9080000
  43.5403950  11.3082600  18.8061830  43.5349520  10.8219790  17.3725230
  36.1791190  11.3778190  19.6851620  36.0033670  10.4613730  19.4719420
  35.3246930  11.7365480  19.9249420  43.4028940   9.1067220  16.4678000
  42.7094100   9.1044510  15.8080280  44.1451800   8.6826540  16.0372170
  42.9678870  10.7329930  20.5426490  43.4235820   9.9519310  20.8565110
  43.3071390  11.4436750  21.0867670  30.7181420   6.5046390  27.7017230
  30.8812460   6.0351750  26.8836600  31.1833870   5.9969950  28.3666070
  41.7032180   1.9918380  25.1903760  40.9713300   2.5005190  25.5393860
  41.3056520   1.1748360  24.8892540  37.2151220   1.9785800  15.9846310
  36.6468120   1.5304050  15.3582220  37.9240220   2.3378580  15.4511460
  32.2920400   5.8797820  29.8613040  31.9075190   5.2391490  30.4596000
  32.6032590   6.5833940  30.4307770  38.4417540   2.7274360  25.3421660
  38.8087670   2.2532930  26.0883000  38.2522600   3.6015930  25.6830000
  36.2316910   1.7683000  27.6605870  35.9273980   2.6474980  27.8856230
  37.1863370   1.8282790  27.6963310  34.7598700   5.9743990  18.2572720
  33.9860960   5.4341610  18.0971440  35.4893330   5.4550600  17.9190480
  45.5186680   4.9709350  24.0499110  46.2385800   5.4664640  23.6595220
  45.3168500   4.2927240  23.4052980  40.9005480   5.0418410  29.9368110
  40.8342790   4.1214080  29.6825700  40.2710620   5.1393850  30.6512750
  34.8036100   5.6424370  21.8951530  35.3214770   4.8392630  21.8408420
  34.3520120   5.5803510  22.7368360  39.6905600   6.9090650  17.1678830
  40.0321300   7.6532880  16.6722150  38.8618310   7.2221770  17.5303660
  32.2880640   2.6085740  28.8077230  31.9295580   3.2739590  29.3950570
  31.9935200   1.7769290  29.1789850  35.4893760   3.0669980  31.6916780
  35.1893900   3.2127160  30.7944600  36.2605000   2.5075270  31.5990170
  40.8322210   7.8638980  29.6871910  40.8466750   6.9319940  29.4690820
  40.1247310   7.9498740  30.3261680  45.9659280   2.0478800  15.9570520
  45.8823000   2.4793020  15.1066960  46.6853470   2.5077150  16.3897340
  47.0433420   4.5046320  29.0340490  46.3181610   5.0975100  28.8369880
  47.5708880   4.4969860  28.2353860  46.9946530   8.9021060  18.6852650
  46.3522690   8.2476680  18.9596370  46.6077190   9.3076150  17.9093320
  42.5733010   6.2306490  22.5324340  42.9256830   5.6334620  21.8725710
  41.6895340   5.9050720  22.7032590  38.6596290   6.9904180  19.9394750
  39.3467420   7.5373390  20.3202340  37.8728710   7.5344910  19.9744360
  30.7988690   2.6077000  15.4311830  31.6683540   2.8901800  15.7147750
  30.3079010   3.4212870  15.3160640  37.9623500   3.9950210  19.5520110
  38.4186280   4.8055460  19.7780300  37.6111710   3.6773350  20.3838600
  40.2656110   9.5056550  26.7812410  40.9098330   9.7115930  27.4585830
  40.6285550   8.7444950  26.3283260  41.5388190   7.5088900  25.4989860
  42.1810420   6.8082060  25.6122030  42.0637540   8.2887340  25.3186750
  45.3843910   7.7937520  15.2229000  45.1581490   7.0767960  15.8153640
  44.9940110   7.5449960  14.3850750  43.3125810   8.3083800  28.7025920
  43.6482050   8.8950490  29.3803840  42.3926150   8.1776510  28.9323710
  31.1659940  11.8204380  15.9973460  31.5257580  12.4193720  15.3430730
  31.0252280  12.3664270  16.7708490  44.9660160   5.7109460  16.8843160
  44.6781860   6.1722150  17.6721040  45.7612330   5.2507230  17.1527380
  31.1501800  10.0859240  30.4715860  31.2592920   9.1453980  30.3311250
  30.4982360  10.3513990  29.8229590  39.1414390   8.3575130  31.8713980
  38.8211260   7.6384370  32.4159670  38.4672750   9.0330200  31.9450040
  37.1828560   9.2035580  16.8147130  37.1738660   9.9365270  16.1991640
  36.2626920   8.9567160  16.9074090  32.7835200   4.4250470  17.5593890
  32.1763150   5.1649370  17.5689190  33.2584550   4.5149830  16.7332090
  40.1688160   9.2663820  15.4772320  40.2700140   9.0627810  14.5474300
  39.2689900   9.0122100  15.6820100  38.8106270  11.7850140  20.1719990
  39.0647770  11.7471530  19.2499360  37.8618750  11.6583470  20.1648240
  44.8158850   2.7042020  21.7478500  43.8748990   2.7192250  21.9226190
  45.1302920   1.9177980  22.1938800  34.7940490   4.3861620  15.3082460
  35.5603760   4.2742980  15.8707890  34.8715180   3.6899590  14.6559230
  46.8184430   9.8750870  23.4232760  46.9431850  10.6982040  23.8956570
  47.6849990   9.6641600  23.0756910  34.2901960  11.9682080  23.0949890
  35.0264440  11.4197540  23.3658460  34.6742880  12.8338090  22.9555880
  31.1747440   8.0355650  18.9691400  30.2487220   8.2776790  18.9596810
  31.6403870   8.8629910  18.8476150  33.2960240  11.1528150  32.2835470
  34.0972970  11.4740200  32.6970870  32.7812060  10.7923730  33.0055380
  37.4004270  11.1412390  14.9175460  38.1932880  11.4301220  14.4657250
  36.8808620  10.7104560  14.2387940  42.1324870   7.2608020  32.2310880
  41.5263030   7.2839620  31.4906630  41.8278980   6.5291060  32.7678130
  43.5625240  10.9888310  30.8420290  44.5146990  10.9046330  30.7920530
  43.4153460  11.6530020  31.5154080  46.4534440  10.3682520  16.3412200
  46.1675950   9.9547660  15.5266380  46.2553990  11.2970230  16.2212720
  31.0158050   3.6401610  31.2271520  31.5197070   3.0608890  31.7987750
  30.2765470   3.9241840  31.7647890  37.9181670   6.3615800  14.7817810
  37.8132310   5.7468150  15.5079190  37.7505890   5.8381690  13.9980820
  38.0695990   5.0472600  30.7607040  37.3041660   5.6157600  30.6761710
  38.2511950   4.7548810  29.8675270  41.1584400   5.4235830  15.3859800
  40.6094500   5.8705130  16.0302540  41.7803660   4.9185080  15.9097470
  45.2119340   6.7777930  31.3182060  45.9528810   7.1153690  30.8149520
  44.4492020   6.9469990  30.7651830  33.0481130   1.7831200  32.1221590
  33.0886470   1.4845070  33.0306820  33.9026630   2.1838810  31.9629110
  36.8259520   4.3826750  17.2825100  37.2475940   4.2166620  18.1256490
  36.9510360   3.5726980  16.7880240  39.3387160   3.4064360  14.5302200
  39.8592820   2.6913380  14.1643350  39.9855560   4.0450230  14.8302710
  43.8865000   4.8292760  29.8537270  44.3006020   4.9837840  30.7027690
  42.9516000   4.9547980  30.0163050  44.3587170   2.1688920  31.8576420
  44.9407940   1.4141240  31.7696900  44.5348940   2.6996360  31.0807900
  38.6480230   4.7813240  27.8233200  39.0668340   5.6245970  27.6509440
  37.7288860   4.9185280  27.5939980  40.9844130   2.5129420  29.2071040
  41.1040340   1.9170560  29.9465880  41.8438130   2.5499110  28.7872340
  43.3232030   3.0666610  27.7833550  42.7967250   3.5909230  27.1798690
  43.6663370   3.6994000  28.4143280  36.4987650  11.0866250  28.9390930
  35.9608740  11.8112310  28.6199630  36.7521610  10.6096590  28.1488270
  39.3549860  12.3217460  29.1977580  39.2808560  13.2252600  29.5049950
  38.4528700  12.0029360  29.1699650  39.9035190  11.4875970  16.8203940
  40.7985980  11.8260940  16.8422700  39.9352820  10.7655380  16.1928220
  33.5431350   6.8603020  15.0490940  33.9806220   7.4032690  15.7048520
  34.0279080   6.0349970  15.0587280  30.7577150   9.6492050  22.5011200
  31.0880160   8.7813110  22.2689840  31.1868150   9.8550570  23.3316160
  35.3539070   7.9801060  20.1613170  35.0534610   7.8566030  21.0617080
  35.2476560   7.1209650  19.7528900  31.2467360  10.5162640  25.2392830
  30.8098350  10.6963440  26.0716980  31.8145040  11.2737260  25.0974550
  46.8829540  10.0179640  29.5270140  46.2831530  10.0772200  28.7834060
  47.0123440   9.0784620  29.6566990  48.1230990   7.7597460  14.8639850
  47.2923950   7.8274110  15.3347080  48.3002820   8.6501580  14.5606710
  47.5787450   4.5044940  17.3674050  48.3406360   5.0741590  17.4733740
  47.5941820   3.9372140  18.1382360  31.0791790   3.0282870  21.5981710
  30.4240630   2.7594510  20.9541410  31.9169740   2.9187350  21.1483690
  48.5847420   5.3595040  22.2115980  48.9556250   4.5762360  21.8051950
  49.2249350   6.0484140  22.0333280  45.5681180   6.7431620  27.6246300
  44.7541020   7.1728780  27.8872090  45.9755380   7.3550030  27.0115350
  47.6306620   4.7979310  14.5246570  47.9055460   5.7058190  14.3965790
  47.4417360   4.7341840  15.4608560  47.5271960   2.7348300  19.5176000
  47.1515560   1.9676230  19.0857290  46.7975080   3.1171000  20.0050930
  32.1167720   3.4135440  26.1385050  32.4840760   3.3262840  27.0181070
  31.5478540   2.6501990  26.0391910  46.9171580   1.8819820  29.1515520
  46.6857670   1.6532570  28.2513470  47.1776130   2.8019370  29.1060410
  45.6257230  11.4950220  21.1514570  46.2216300  11.1734790  20.4748990
  45.8835380  11.0222040  21.9427840  33.5319800   7.9268130  31.3005200
  33.4889430   7.5561040  32.1819660  33.6630810   8.8645700  31.4407020
  37.2325830   9.4827720  26.9014920  36.9917190   9.7502280  26.0145440
  38.1728470   9.6533450  26.9565780  48.4929990  11.5022100  27.7025560
  47.9988270  11.8990970  26.9852690  47.8843280  10.8771310  28.0962840
  33.3707830  10.8730380  28.4202980  32.7768150  10.7415080  29.1593020
  33.3631670  10.0368520  27.9545080  46.1769440  12.1445520  24.9812300
  45.7172410  12.8961330  24.6070320  45.5481900  11.4251990  24.9227100
  33.0020060   8.2388760  27.3711020  32.2754120   7.6194050  27.3036970
  33.0629210   8.6329370  26.5009100  36.6065160  10.4533760  24.1560430
  37.1230180   9.8421120  23.6308690  37.2562540  10.9562540  24.6471440
  39.3460660  11.3442250  24.9829410  39.6338470  11.0896550  24.1062420
  39.8583880  10.7919610  25.5734980  31.2850060  11.5563150  20.5807780
  31.1172100  10.9233830  21.2789670  30.4184570  11.7622550  20.2301970
  32.8912760  10.2496380  18.0257920  32.3660380  10.6304410  17.3219880
  32.8157340  10.8747150  18.7467630  39.4133020  12.2658350  32.3497610
  40.3400330  12.0302620  32.3933570  39.3983450  13.0930350  31.8683640
  47.6478080  11.8083920  19.3471860  47.8230270  11.1221660  18.7032780
  46.9499650  12.3330970  18.9548530  35.4905730  12.1978760  16.9007170
  36.2224550  11.9138040  16.3531060  35.7499400  11.9592040  17.7906550
  34.6520520   8.3143490  16.9053500  34.0229400   8.7828590  17.4539330
  34.7668350   7.4692710  17.3399690  45.9810580  11.4928210  32.1738650
  46.7735900  10.9977440  31.9664610  46.2743730  12.1718350  32.7814260
  42.1070240   2.3649150   3.0554700  42.0264290   1.4503760   2.7846410
  41.6934660   2.8616220   2.3494410  40.2388280   4.1428170   4.9363970
  39.4630380   3.6628610   5.2262540  40.8901210   3.4633820   4.7620130
  34.2554110   4.4547980   5.8139730  33.4238990   4.1996690   6.2136240
  34.8635090   4.5258750   6.5497650  44.2595710   8.5488360   3.7163100
  43.7977240   7.7775600   4.0450270  45.0721260   8.5754430   4.2215550
  34.2355370   8.4888070   6.0097750  34.5383410   7.5985810   5.8307970
  34.9798960   9.0458290   5.7820000  30.6279070   2.0155520   5.4821820
  31.1995180   1.2477720   5.4825460  30.6280610   2.3144280   4.5728430
  40.4859020  10.8346370   3.3367090  39.8670460  11.2903870   2.7661530
  41.3410800  10.9897830   2.9356790  39.6797270   6.8185360   4.9434130
  39.6105550   5.8775300   4.7823260  40.4417130   6.9086770   5.5156700
  36.2154130   5.2461480   7.4082600  35.8823510   5.8730400   8.0503670
  36.3920810   5.7723360   6.6284270  35.4273230   7.2142280   9.2231780
  36.0447230   7.8893360   8.9416230  34.5666350   7.6230260   9.1319280
  46.3450820   8.6781690   7.1386420  45.6614340   9.3480800   7.1303090
  46.8845110   8.8762340   6.3731280  43.8809560  10.5225820   5.8531600
  43.8936720  10.1188110   4.9853860  43.3284780  11.2973110   5.7493030
  43.2795000   5.4255660   7.1814210  43.6963790   5.2115770   6.3467670
  44.0034820   5.6828450   7.7522830  47.2257100   3.8242880   7.2730450
  46.3975730   3.8935970   6.7980580  47.8207580   4.4097190   6.8046280
  36.3231900   3.3972100   3.0803990  35.9188900   2.6849350   2.5849890
  36.4095020   3.0525340   3.9692030  36.7913600   7.0839660   5.2443200
  36.4941890   6.4785130   4.5650980  37.7413420   7.1216970   5.1332560
  44.8799210  10.6571530   8.9066300  44.4029770  11.4643720   8.7138910
  44.1961000  10.0049860   9.0592510  35.8832030   6.8221350  11.8951000
  34.9860560   7.0461320  12.1424400  35.9084900   6.9456290  10.9462400
  34.7103250   3.6934670  10.4708370  34.5711020   4.5657470  10.8395770
  33.8284610   3.3507480  10.3256310  36.5083600   9.6356370  12.6793520
  36.4799030  10.0399320  11.8121950  36.3448570   8.7066730  12.5165120
  48.4598420  10.4183470  13.9757690  48.9358140  10.8966360  14.6546770
  49.0805580  10.3500960  13.2503190  30.6621900   5.4632220   6.3879280
  30.7402320   5.5980990   5.4435000  31.2763580   4.7548110   6.5807400
  31.9069530   7.1632410   2.7985460  31.4997610   7.3047000   1.9439060
  32.7982540   6.8792570   2.5956670  47.8631670   7.6096320  11.1357700
  47.9894730   7.3708200  10.2174880  47.9053050   6.7780860  11.6079780
  41.7248410  11.3124320   9.7052510  42.2393080  11.2232330  10.5074940
  40.8817490  11.6584020   9.9980420  42.9678870  10.7329930   1.7683000
  43.4235820   9.9519310   2.0821620  43.3071390  11.4436750   2.3124180
  30.7181420   6.5046390   8.9273740  30.8812460   6.0351750   8.1093110
  31.1833870   5.9969950   9.5922580  41.7032180   1.9918380   6.4160270
  40.9713300   2.5005190   6.7650370  41.3056520   1.1748360   6.1149050
  32.2920400   5.8797820  11.0869550  31.9075190   5.2391490  11.6852510
  32.6032590   6.5833940  11.6564280  38.4417540   2.7274360   6.5678170
  38.8087670   2.2532930   7.3139510  38.2522600   3.6015930   6.9086510
  36.2316910   1.7683000   8.8862380  35.9273980   2.6474980   9.1112740
  37.1863370   1.8282790   8.9219820  45.5186680   4.9709350   5.2755620
  46.2385800   5.4664640   4.8851730  45.3168500   4.2927240   4.6309490
  40.9005480   5.0418410  11.1624620  40.8342790   4.1214080  10.9082210
  40.2710620   5.1393850  11.8769260  34.8036100   5.6424370   3.1208040
  35.3214770   4.8392630   3.0664930  34.3520120   5.5803510   3.9624870
  32.2880640   2.6085740  10.0333740  31.9295580   3.2739590  10.6207080
  31.9935200   1.7769290  10.4046360  35.4893760   3.0669980  12.9173290
  35.1893900   3.2127160  12.0201110  36.2605000   2.5075270  12.8246680
  40.8322210   7.8638980  10.9128420  40.8466750   6.9319940  10.6947330
  40.1247310   7.9498740  11.5518190  47.0433420   4.5046320  10.2597000
  46.3181610   5.0975100  10.0626390  47.5708880   4.4969860   9.4610370
  42.5733010   6.2306490   3.7580850  42.9256830   5.6334620   3.0982220
  41.6895340   5.9050720   3.9289100  40.2656110   9.5056550   8.0068920
  40.9098330   9.7115930   8.6842340  40.6285550   8.7444950   7.5539770
  41.5388190   7.5088900   6.7246370  42.1810420   6.8082060   6.8378540
  42.0637540   8.2887340   6.5443260  43.3125810   8.3083800   9.9282430
  43.6482050   8.8950490  10.6060350  42.3926150   8.1776510  10.1580220
  31.1501800  10.0859240  11.6972370  31.2592920   9.1453980  11.5567760
  30.4982360  10.3513990  11.0486100  39.1414390   8.3575130  13.0970490
  38.8211260   7.6384370  13.6416180  38.4672750   9.0330200  13.1706550
  44.8158850   2.7042020   2.9735010  43.8748990   2.7192250   3.1482700
  45.1302920   1.9177980   3.4195310  46.8184430   9.8750870   4.6489270
  46.9431850  10.6982040   5.1213080  47.6849990   9.6641600   4.3013420
  34.2901960  11.9682080   4.3206400  35.0264440  11.4197540   4.5914970
  34.6742880  12.8338090   4.1812390  33.2960240  11.1528150  13.5091980
  34.0972970  11.4740200  13.9227380  32.7812060  10.7923730  14.2311890
  42.1324870   7.2608020  13.4567390  41.5263030   7.2839620  12.7163140
  41.8278980   6.5291060  13.9934640  43.5625240  10.9888310  12.0676800
  44.5146990  10.9046330  12.0177040  43.4153460  11.6530020  12.7410590
  31.0158050   3.6401610  12.4528030  31.5197070   3.0608890  13.0244260
  30.2765470   3.9241840  12.9904400  38.0695990   5.0472600  11.9863550
  37.3041660   5.6157600  11.9018220  38.2511950   4.7548810  11.0931780
  45.2119340   6.7777930  12.5438570  45.9528810   7.1153690  12.0406030
  44.4492020   6.9469990  11.9908340  33.0481130   1.7831200  13.3478100
  33.0886470   1.4845070  14.2563330  33.9026630   2.1838810  13.1885620
  43.8865000   4.8292760  11.0793780  44.3006020   4.9837840  11.9284200
  42.9516000   4.9547980  11.2419560  44.3587170   2.1688920  13.0832930
  44.9407940   1.4141240  12.9953410  44.5348940   2.6996360  12.3064410
  38.6480230   4.7813240   9.0489710  39.0668340   5.6245970   8.8765950
  37.7288860   4.9185280   8.8196490  40.9844130   2.5129420  10.4327550
  41.1040340   1.9170560  11.1722390  41.8438130   2.5499110  10.0128850
  43.3232030   3.0666610   9.0090060  42.7967250   3.5909230   8.4055200
  43.6663370   3.6994000   9.6399790  36.4987650  11.0866250  10.1647440
  35.9608740  11.8112310   9.8456140  36.7521610  10.6096590   9.3744780
  39.3549860  12.3217460  10.4234090  39.2808560  13.2252600  10.7306460
  38.4528700  12.0029360  10.3956160  30.7577150   9.6492050   3.7267710
  31.0880160   8.7813110   3.4946350  31.1868150   9.8550570   4.5572670
  31.2467360  10.5162640   6.4649340  30.8098350  10.6963440   7.2973490
  31.8145040  11.2737260   6.3231060  46.8829540  10.0179640  10.7526650
  46.2831530  10.0772200  10.0090570  47.0123440   9.0784620  10.8823500
  31.0791790   3.0282870   2.8238220  30.4240630   2.7594510   2.1797920
  31.9169740   2.9187350   2.3740200  48.5847420   5.3595040   3.4372490
  48.9556250   4.5762360   3.0308460  49.2249350   6.0484140   3.2589790
  45.5681180   6.7431620   8.8502810  44.7541020   7.1728780   9.1128600
  45.9755380   7.3550030   8.2371860  32.1167720   3.4135440   7.3641560
  32.4840760   3.3262840   8.2437580  31.5478540   2.6501990   7.2648420
  46.9171580   1.8819820  10.3772030  46.6857670   1.6532570   9.4769980
  47.1776130   2.8019370  10.3316920  45.6257230  11.4950220   2.3771080
  46.2216300  11.1734790   1.7005500  45.8835380  11.0222040   3.1684350
  33.5319800   7.9268130  12.5261710  33.4889430   7.5561040  13.4076170
  33.6630810   8.8645700  12.6663530  37.2325830   9.4827720   8.1271430
  36.9917190   9.7502280   7.2401950  38.1728470   9.6533450   8.1822290
  48.4929990  11.5022100   8.9282070  47.9988270  11.8990970   8.2109200
  47.8843280  10.8771310   9.3219350  33.3707830  10.8730380   9.6459490
  32.7768150  10.7415080  10.3849530  33.3631670  10.0368520   9.1801590
  46.1769440  12.1445520   6.2068810  45.7172410  12.8961330   5.8326830
  45.5481900  11.4251990   6.1483610  33.0020060   8.2388760   8.5967530
  32.2754120   7.6194050   8.5293480  33.0629210   8.6329370   7.7265610
  36.6065160  10.4533760   5.3816940  37.1230180   9.8421120   4.8565200
  37.2562540  10.9562540   5.8727950  39.3460660  11.3442250   6.2085920
  39.6338470  11.0896550   5.3318930  39.8583880  10.7919610   6.7991490
  39.4133020  12.2658350  13.5754120  40.3400330  12.0302620  13.6190080
  39.3983450  13.0930350  13.0940150  45.9810580  11.4928210  13.3995160
  46.7735900  10.9977440  13.1921120  46.2743730  12.1718350  14.0070770
  23.3326750  77.4623110  96.9272150  23.2520800  76.5477720  96.6563860
  22.9191170  77.9590180  96.2211860  21.4644790  79.2402130  98.8081420
  20.6886890  78.7602570  99.0979990  22.1157720  78.5607780  98.6337580
  15.4810620  79.5521940  99.6857180  14.6495500  79.2970650 100.0853690
  16.0891600  79.6232710 100.4215100  13.8902570  74.5123830  93.4699570
  13.0019270  74.8539800  93.3679450  14.1743760  74.3124150  92.5780400
  11.8535580  77.1129480  99.3539270  12.4251690  76.3451680  99.3542910
  11.8537120  77.4118240  98.4445880  21.9358950  74.7229700  99.0420510
  22.3123770  73.8501580  98.9294180  21.8378460  75.0588400  98.1510950
  16.0663960  73.0955330  94.5037950  16.1730710  73.9959060  94.8106710
  15.1556320  73.0473300  94.2132600  25.7183070  72.2180140  95.9748850
  26.5392690  71.7276710  96.0174330  25.7517150  72.8077800  96.7280690
  13.7147120  75.0174340  99.7490540  14.3957230  75.2812710 100.3677940
  13.3995170  74.1775210 100.0828550  17.9071690  76.0641700  98.8363130
  18.4149910  76.5622670  99.4768150  18.4384930  75.2876900  98.6602490
  25.9544550  74.1580520  98.7476390  25.2500120  74.4465410  99.3279500
  26.3156710  74.9680630  98.3875950  15.8723120  72.4150220 101.1097000
  16.2139930  73.2592270 100.8150870  14.9338930  72.5633960 101.2262340
  29.0231470  73.6035310  99.1385600  28.0756380  73.6374290  99.2701030
  29.3481460  74.4174260  99.5234960  19.5551010  69.9032490  97.4341590
  19.8625990  69.3479380  96.7177090  18.6251710  70.0376950  97.2514580
  21.9431770  77.9681320  94.1701710  21.0161050  77.9018700  94.3990180
  22.0956590  78.9061450  94.0556950  21.9300850  74.2398320  91.1668870
  20.9904520  74.4012280  91.2521330  22.2484110  74.9584000  90.6204860
  28.4513610  78.9216840 101.1447900  27.6232240  78.9909930 100.6698030
  29.0464090  79.5071150 100.6763730  25.9729060  79.5301620  94.6736960
  25.3541480  79.1921170  94.0263260  25.9553510  78.8861380  95.3816150
  17.5488410  78.4946060  96.9521440  17.1445410  77.7823310  96.4567340
  17.6351530  78.1499300  97.8409480  16.2617030  75.2689270 100.7320480
  16.8131620  75.3784610  99.9573730  16.7760540  75.6426870 101.4475710
  24.1493760  78.7688430  91.6809710  24.5887040  77.9310860  91.5347530
  24.8622180  79.4017830  91.7673850  27.7310900  70.0231240  89.9950750
  27.4183560  70.1158070  90.8949820  28.4923370  70.6012270  89.9448180
  14.2493040  77.3891040  94.4528090  14.1290640  78.1153130  93.8409360
  13.9393930  76.6193950  93.9756000  16.7156700  70.7326110  97.8351760
  16.2724850  71.5135650  97.5036280  17.2741690  71.0556000  98.5422700
  19.8315520  70.3536810  92.7157590  19.2069700  70.3496680  93.4410900
  19.7445640  69.4867770  92.3193560  18.7532600  71.2773440  99.6941360
  19.0504930  72.1836270  99.6133380  19.3018160  70.7892220  99.0800930
  16.5070920  75.8559680  95.5633010  16.2811840  75.6396850  96.4679630
  15.7263450  76.2888140  95.2178980  23.7368680  75.8623050  94.1623660
  23.1377570  76.5858850  93.9787280  24.2848290  75.7999830  93.3800110
  22.3433550  74.4986590  96.1926940  22.7363120  74.8158790  95.3795630
  22.7050400  73.6198470  96.3071460  11.3797720  71.0887390  98.4157140
  11.0910770  71.6590250  99.1282120  12.1243480  70.6091840  98.7788370
  11.5667950  75.0307510  89.6259860  11.4842620  75.9738270  89.7674850
  11.2151010  74.8882420  88.7472210  22.9288690  77.0892340 100.2877720
  22.1969810  77.5979150 100.6367820  22.5313030  76.2722320  99.9866500
  19.3666080  73.7646540  98.6930210  19.3702140  73.3236490  97.8434750
  20.2617200  74.0863870  98.8002030  15.2168460  73.6473030  97.6524420
  14.8768510  74.1248260  98.4091470  14.4545780  73.1938150  97.2925520
  19.4286230  74.7658620  91.6836970  19.5499050  74.7245100  92.6322790
  19.0434740  75.6282770  91.5283700  23.3914600  72.5426020  99.7000660
  23.4087340  72.9934670 100.5442510  23.1430180  71.6431660  99.9134100
  18.4407730  77.0759760  91.0820270  17.8724630  76.6278010  90.4556180
  19.1496730  77.4352540  90.5485420  19.6674050  77.8248320 100.4395620
  20.0344180  77.3506890 101.1856960  19.4779110  78.6989890 100.7803960
  12.5314540  72.5692010  96.5689090  12.2461460  72.2047680  97.4067710
  12.4693400  71.8372470  95.9552230  22.2053130  71.4621270  93.2902460
  21.3917740  70.9634440  93.2147770  22.0115080  72.3019520  92.8738810
  24.9201520  75.8340920  91.5864620  25.8081140  76.1458150  91.4115960
  24.8906610  74.9613170  91.1945200  27.1915790  77.1452760  91.0544480
  27.1079510  77.5766980  90.2040920  27.9109980  77.6051110  91.4871300
  12.0245200  77.7050960  90.5285790  12.8940050  77.9875760  90.8121710
  11.5335520  78.5186830  90.4134600  19.1880010  79.0924170  94.6494070
  19.6442790  79.9029420  94.8754260  18.8368220  78.7747310  95.4812560
  15.0891790  69.4361820  95.1216590  14.9606420  69.4279720  96.0701510
  14.2653810  69.7744910  94.7707600  14.0091710  79.5224430  92.6567850
  13.4019660  80.2623330  92.6663150  14.4841060  79.6123790  91.8306050
  26.9486530  72.6432190  93.1412300  26.3199690  72.7477860  92.4270530
  26.4538450  72.8628970  93.9306180  18.9170560  74.9218140  94.5570180
  18.2086710  75.3904480  94.9983790  19.2015040  74.2640150  95.1915370
  22.9485990  71.6468800  95.9965970  22.8253770  71.6654930  95.0475480
  23.8970550  71.6947740  96.1164370  17.1205580  73.2303220  91.9320890
  17.9696110  73.6673370  91.8661080  16.7536850  73.5423480  92.7592950
  26.0415360  77.8015980  96.8452460  25.1005500  77.8166210  97.0200150
  26.3559430  77.0151940  97.2912760  16.0197000  79.4835580  90.4056420
  16.7860270  79.3716940  90.9681850  16.0971690  78.7873550  89.7533190
  14.7143760  76.9160650  91.0889310  14.7947350  75.9688160  91.2006710
  15.6063510  77.2467530  91.1949970  18.0516030  79.4800710  92.3799060
  18.4732450  79.3140580  93.2230450  18.1766870  78.6700940  91.8854200
  20.5643670  78.5038320  89.6276160  21.0849330  77.7887340  89.2617310
  21.2112070  79.1424190  89.9276670  16.9474930  75.5533940  89.3257220
  16.7463990  74.6901300  89.6870560  16.7766980  75.4667300  88.3878820
  24.4263240  70.3642170  91.8544100  24.7065530  69.5210070  92.2103520
  23.6528970  70.5965280  92.3682850  15.7457730  72.6534560  89.3135100
  16.0483630  72.6601990  88.4054250  16.4852320  72.3032420  89.8102760
  18.9642660  71.5969180  90.2991300  18.6164660  70.9193170  89.7193750
  19.1655430  71.1358690  91.1134690  28.8043960  79.6018900  92.4648010
  29.5662870  80.1715550  92.5707700  28.8198330  79.0346100  93.2356320
  12.3048300  78.1256830  96.6955670  11.6497140  77.8568470  96.0515370
  13.1426250  78.0161310  96.2457650  25.2538740  72.9198120  90.9174160
  25.6723620  72.7329100  90.0770820  24.9474800  72.0677170  91.2277090
  28.7528470  77.8322260  94.6149960  28.3772070  77.0650190  94.1831250
  28.0231590  78.2144960  95.1024890  11.5186380  75.3355760  92.6381000
  10.6150460  75.5985960  92.4632660  12.0027000  75.6066930  91.8580960
  28.0279430  76.0579750  97.9157200  28.5516910  75.5642400  97.2847370
  28.6138850  76.1930110  98.6604770  28.2069150  76.1419620 101.4376750
  27.2571860  76.1083160 101.5521740  28.3882160  77.0519730 101.2026520
  14.0613590  74.3921300  90.5475380  14.7705290  73.9704520  90.0622660
  13.3453530  74.4596530  89.9158730  13.7087750  70.4460630  89.5878030
  14.4315880  70.9869570  89.9059250  13.9812270  70.1724050  88.7119570
  27.5179400  75.3153100  93.8549610  28.0138520  75.0823970  94.6398490
  27.3195470  74.4764940  93.4387250  13.3979940  69.6966820  99.4900650
  14.0456130  69.1464200  99.0495810  13.8181780  69.9509970 100.3116460
  28.9466560  73.9514050  96.3887290  28.8365840  73.7970090  97.3269560
  29.7074150  73.4234990  96.1462700  29.8356830  71.7821970  89.6293430
  30.7606140  71.6503150  89.4211720  29.8132620  71.8614790  90.5829880
  29.9095320  72.5532630  92.2550140  29.1146820  72.4877750  92.7843050
  30.1138600  73.4883270  92.2435490  21.7894180  70.1806410 100.6599880
  21.0065970  70.6551910 100.9396640  21.4957110  69.2761240 100.5513060
  26.3415250  70.8829510  98.7048970  26.7823340  70.8274610  97.8570570
  26.0722840  71.7987520  98.7759150  28.2053820  70.5144750  96.7157790
  28.1442220  69.5705970  96.5688810  28.9845850  70.6224840  97.2611250
  13.1334590  70.4853890  93.1813600  13.8913950  70.5982770  92.6077630
  12.6711760  71.3223090  93.1357030  19.6748400  72.5993160  96.1715910
  18.8622910  72.2250050  95.8311790  20.1790040  71.8438240  96.4737100
  24.1773380  69.2635610  97.4098980  24.7802750  69.8355820  97.8847500
  23.4366370  69.8275050  97.1872880  27.3207980  69.6657170  92.6839260
  27.5158610  70.5640620  92.9506690  26.5337850  69.4344250  93.1772210
  15.5059740  71.0117940  91.7215570  16.0352500  70.2247740  91.5923520
  16.1388060  71.6909130  91.9551100  17.6997580  70.7493080  94.7760960
  17.0700320  70.0480390  94.9431090  17.1602720  71.5097210  94.5594120
  23.3326750  77.4623110  78.1528660  23.2520800  76.5477720  77.8820370
  22.9191170  77.9590180  77.4468370  21.4644790  79.2402130  80.0337930
  20.6886890  78.7602570  80.3236500  22.1157720  78.5607780  79.8594090
  15.4810620  79.5521940  80.9113690  14.6495500  79.2970650  81.3110200
  16.0891600  79.6232710  81.6471610  13.8902570  74.5123830  74.6956080
  13.0019270  74.8539800  74.5935960  14.1743760  74.3124150  73.8036910
  11.8535580  77.1129480  80.5795780  12.4251690  76.3451680  80.5799420
  11.8537120  77.4118240  79.6702390  13.0960450  72.5213840  82.3664710
  12.9163290  71.6239590  82.6467470  12.6940530  73.0685710  83.0411660
  21.9358950  74.7229700  80.2677020  22.3123770  73.8501580  80.1550690
  21.8378460  75.0588400  79.3767460  16.0663960  73.0955330  75.7294460
  16.1730710  73.9959060  76.0363220  15.1556320  73.0473300  75.4389110
  25.7183070  72.2180140  77.2005360  26.5392690  71.7276710  77.2430840
  25.7517150  72.8077800  77.9537200  13.7147120  75.0174340  80.9747050
  14.3957230  75.2812710  81.5934450  13.3995170  74.1775210  81.3085060
  17.9071690  76.0641700  80.0619640  18.4149910  76.5622670  80.7024660
  18.4384930  75.2876900  79.8859000  30.0082620  74.2346890  83.7648990
  29.3034790  74.6228600  83.2464100  30.2740540  74.9297180  84.3669920
  16.1907790  70.7040260  84.3283060  16.1926230  71.2212650  83.5228960
  15.3612100  70.2270440  84.3052990  25.9544550  74.1580520  79.9732900
  25.2500120  74.4465410  80.5536010  26.3156710  74.9680630  79.6132460
  15.8723120  72.4150220  82.3353510  16.2139930  73.2592270  82.0407380
  14.9338930  72.5633960  82.4518850  29.0231470  73.6035310  80.3642110
  28.0756380  73.6374290  80.4957540  29.3481460  74.4174260  80.7491470
  19.5551010  69.9032490  78.6598100  19.8625990  69.3479380  77.9433600
  18.6251710  70.0376950  78.4771090  21.9431770  77.9681320  75.3958220
  21.0161050  77.9018700  75.6246690  22.0956590  78.9061450  75.2813460
  21.9300850  74.2398320  72.3925380  20.9904520  74.4012280  72.4777840
  22.2484110  74.9584000  71.8461370  28.4513610  78.9216840  82.3704410
  27.6232240  78.9909930  81.8954540  29.0464090  79.5071150  81.9020240
  25.9729060  79.5301620  75.8993470  25.3541480  79.1921170  75.2519770
  25.9553510  78.8861380  76.6072660  25.4155620  75.7086160  83.3159280
  25.0026800  76.5339870  83.5699270  24.6831570  75.1231200  83.1235640
  17.5488410  78.4946060  78.1777950  17.1445410  77.7823310  77.6823850
  17.6351530  78.1499300  79.0665990  16.2617030  75.2689270  81.9576990
  16.8131620  75.3784610  81.1830240  16.7760540  75.6426870  82.6732220
  24.1493760  78.7688430  72.9066220  24.5887040  77.9310860  72.7604040
  24.8622180  79.4017830  72.9930360  15.9359760  78.7908630  85.5682330
  15.7967530  79.6631430  85.9369730  15.0541120  78.4481440  85.4230270
  27.7310900  70.0231240  71.2207260  27.4183560  70.1158070  72.1206330
  28.4923370  70.6012270  71.1704690  14.2493040  77.3891040  75.6784600
  14.1290640  78.1153130  75.0665870  13.9393930  76.6193950  75.2012510
  28.9412190  74.7602740  87.1981400  28.3256460  75.2682410  86.6696860
  28.6208610  73.8601070  87.1407340  16.7156700  70.7326110  79.0608270
  16.2724850  71.5135650  78.7292790  17.2741690  71.0556000  79.7679210
  21.0026510  73.5994630  84.6643590  20.5405880  73.8077650  85.4763530
  20.6004620  72.7853980  84.3614260  26.0031020  74.8203580  85.7940250
  25.1524610  74.5209330  86.1149320  25.8432810  75.0645590  84.8824070
  23.0980730  76.3205330  87.8939040  23.4234140  75.4869080  87.5541270
  23.8861060  76.8433850  88.0417370  19.8315520  70.3536810  73.9414100
  19.2069700  70.3496680  74.6667410  19.7445640  69.4867770  73.5450070
  18.7532600  71.2773440  80.9197870  19.0504930  72.1836270  80.8389890
  19.3018160  70.7892220  80.3057440  16.5070920  75.8559680  76.7889520
  16.2811840  75.6396850  77.6936140  15.7263450  76.2888140  76.4435490
  23.7368680  75.8623050  75.3880170  23.1377570  76.5858850  75.2043790
  24.2848290  75.7999830  74.6056620  18.9470130  76.7545260  87.4549790
  18.8513730  75.8139990  87.3050190  19.7902110  76.9760330  87.0597860
  22.3433550  74.4986590  77.4183450  22.7363120  74.8158790  76.6052140
  22.7050400  73.6198470  77.5327970  14.0780670  73.1658930  85.6083570
  13.6844060  74.0134140  85.8156350  13.3899070  72.5285300  85.7992210
  20.6525720  73.2493900  88.6780310  19.9624040  73.0566100  89.3126400
  21.3958020  73.5328540  89.2104610  11.3797720  71.0887390  79.6413650
  11.0910770  71.6590250  80.3538630  12.1243480  70.6091840  80.0044880
  11.5667950  75.0307510  70.8516370  11.4842620  75.9738270  70.9931360
  11.2151010  74.8882420  69.9728720  22.9288690  77.0892340  81.5134230
  22.1969810  77.5979150  81.8624330  22.5313030  76.2722320  81.2123010
  19.3666080  73.7646540  79.9186720  19.3702140  73.3236490  79.0691260
  20.2617200  74.0863870  80.0258540  15.2168460  73.6473030  78.8780930
  14.8768510  74.1248260  79.6347980  14.4545780  73.1938150  78.5182030
  19.4286230  74.7658620  72.9093480  19.5499050  74.7245100  73.8579300
  19.0434740  75.6282770  72.7540210  23.3914600  72.5426020  80.9257170
  23.4087340  72.9934670  81.7699020  23.1430180  71.6431660  81.1390610
  18.4407730  77.0759760  72.3076780  17.8724630  76.6278010  71.6812690
  19.1496730  77.4352540  71.7741930  26.8185350  69.9558200  86.7643550
  27.1431120  69.2247860  87.2901530  26.8541860  69.6371840  85.8624540
  19.6674050  77.8248320  81.6652130  20.0344180  77.3506890  82.4113470
  19.4779110  78.6989890  82.0060470  12.5314540  72.5692010  77.7945600
  12.2461460  72.2047680  78.6324220  12.4693400  71.8372470  77.1808740
  17.4573420  76.8656960  83.9836340  17.1530490  77.7448940  84.2086700
  18.4119880  76.9256750  84.0193780  22.2053130  71.4621270  74.5158970
  21.3917740  70.9634440  74.4404280  22.0115080  72.3019520  74.0995320
  22.1261990  80.1392370  86.2598580  22.0599300  79.2188040  86.0056170
  21.4967130  80.2367810  86.9743220  24.9201520  75.8340920  72.8121130
  25.8081140  76.1458150  72.6372470  24.8906610  74.9613170  72.4201710
  13.5137150  77.7059700  85.1307700  13.1552090  78.3713550  85.7181040
  13.2191710  76.8743250  85.5020320  16.7150270  78.1643940  88.0147250
  16.4150410  78.3101120  87.1175070  17.4861510  77.6049230  87.9220640
  27.1915790  77.1452760  72.2800990  27.1079510  77.5766980  71.4297430
  27.9109980  77.6051110  72.7127810  28.2689930  79.6020280  85.3570960
  27.5438120  80.1949060  85.1600350  28.7965390  79.5943820  84.5584330
  12.0245200  77.7050960  71.7542300  12.8940050  77.9875760  72.0378220
  11.5335520  78.5186830  71.6391110  19.1880010  79.0924170  75.8750580
  19.6442790  79.9029420  76.1010770  18.8368220  78.7747310  76.7069070
  15.0891790  69.4361820  76.3473100  14.9606420  69.4279720  77.2958020
  14.2653810  69.7744910  75.9964110  12.0885720  71.1952940  85.8079800
  11.3744240  71.3949860  86.4132410  12.5080760  70.4192510  86.1794600
  14.0091710  79.5224430  73.8824360  13.4019660  80.2623330  73.8919660
  14.4841060  79.6123790  73.0562560  23.5824500  73.6875250  83.5581250
  23.9505320  72.8670460  83.8860820  22.7222700  73.7477140  83.9736900
  26.9486530  72.6432190  74.3668810  26.3199690  72.7477860  73.6527040
  26.4538450  72.8628970  75.1562690  18.9170560  74.9218140  75.7826690
  18.2086710  75.3904480  76.2240300  19.2015040  74.2640150  76.4171880
  20.5426490  76.3414840  83.7819220  21.0411740  76.8160660  84.4471070
  20.6849440  75.4178360  83.9889250  22.9485990  71.6468800  77.2222480
  22.8253770  71.6654930  76.2731990  23.8970550  71.6947740  77.3420880
  17.1205580  73.2303220  73.1577400  17.9696110  73.6673370  73.0917590
  16.7536850  73.5423480  73.9849460  27.7493350  72.5582800  84.6247610
  27.2466950  73.2988200  84.9641420  28.5650010  72.9466800  84.3084400
  26.0415360  77.8015980  78.0708970  25.1005500  77.8166210  78.2456660
  26.3559430  77.0151940  78.5169270  16.0197000  79.4835580  71.6312930
  16.7860270  79.3716940  72.1938360  16.0971690  78.7873550  70.9789700
  14.7143760  76.9160650  72.3145820  14.7947350  75.9688160  72.4263220
  15.6063510  77.2467530  72.4206480  12.2414560  78.7375570  87.5501990
  12.7453580  78.1582850  88.1218220  11.5021980  79.0215800  88.0878360
  14.2737640  76.8805160  88.4452060  14.3142980  76.5819030  89.3537290
  15.1283140  77.2812770  88.2859580  18.0516030  79.4800710  73.6055570
  18.4732450  79.3140580  74.4486960  18.1766870  78.6700940  73.1110710
  16.2143450  75.4597260  86.4126550  15.6839910  74.9688210  85.7849890
  16.8831520  75.8881460  85.8784480  20.5643670  78.5038320  70.8532670
  21.0849330  77.7887340  70.4873820  21.2112070  79.1424190  71.1533180
  25.1121510  79.9266720  86.1767740  25.5262530  80.0811800  87.0258160
  24.1772510  80.0521940  86.3393520  25.5843680  77.2662880  88.1806890
  26.1664450  76.5115200  88.0927370  25.7605450  77.7970320  87.4038370
  16.7015750  72.4259630  86.4923840  16.6072620  71.8080380  85.7674710
  16.1213140  73.1525920  86.2653750  19.4677190  70.9832870  83.5251230
  19.0194490  71.0057130  82.6796780  18.8342390  70.5851890  84.1221530
  22.2100640  77.6103380  85.5301510  22.3296850  77.0144520  86.2696350
  23.0694640  77.6473070  85.1102810  24.5488540  78.1640570  84.1064020
  24.0223760  78.6883190  83.5029160  24.8919880  78.7967960  84.7373750
  16.9474930  75.5533940  70.5513730  16.7463990  74.6901300  70.9127070
  16.7766980  75.4667300  69.6135330  18.9769410  74.1524730  86.7877330
  19.5669100  73.8440580  87.4755150  18.1589650  73.6804480  86.9437230
  23.7962840  73.7690540  87.0210350  23.1078360  73.1072080  86.9560340
  24.5168860  73.3228810  87.4658810  24.4263240  70.3642170  73.0800610
  24.7065530  69.5210070  73.4360030  23.6528970  70.5965280  73.5939360
  15.7457730  72.6534560  70.5391610  16.0483630  72.6601990  69.6310760
  16.4852320  72.3032420  71.0359270  18.9642660  71.5969180  71.5247810
  18.6164660  70.9193170  70.9450260  19.1655430  71.1358690  72.3391200
  28.8043960  79.6018900  73.6904520  29.5662870  80.1715550  73.7964210
  28.8198330  79.0346100  74.4612830  12.3048300  78.1256830  77.9212180
  11.6497140  77.8568470  77.2771880  13.1426250  78.0161310  77.4714160
  25.2538740  72.9198120  72.1430670  25.6723620  72.7329100  71.3027330
  24.9474800  72.0677170  72.4533600  28.7528470  77.8322260  75.8406470
  28.3772070  77.0650190  75.4087760  28.0231590  78.2144960  76.3281400
  13.3424230  78.5109400  82.4615520  13.7097270  78.4236800  83.3411540
  12.7735050  77.7475950  82.3622380  28.1428090  76.9793780  85.4745990
  27.9114180  76.7506530  84.5743940  28.4032640  77.8993330  85.4290880
  12.8940230  75.4218490  86.3673940  11.9996280  75.3885250  86.7067650
  13.4337780  75.6205280  87.1325190  26.5816160  72.2050210  88.2525690
  27.4586340  72.2133610  88.6359690  26.5937000  71.4681050  87.6418040
  11.5186380  75.3355760  73.8637510  10.6150460  75.5985960  73.6889170
  12.0027000  75.6066930  73.0837470  28.0279430  76.0579750  79.1413710
  28.5516910  75.5642400  78.5103880  28.6138850  76.1930110  79.8861280
  28.2069150  76.1419620  82.6633260  27.2571860  76.1083160  82.7778250
  28.3882160  77.0519730  82.4283030  14.0613590  74.3921300  71.7731890
  14.7705290  73.9704520  71.2879170  13.3453530  74.4596530  71.1415240
  13.7087750  70.4460630  70.8134540  14.4315880  70.9869570  71.1315760
  13.9812270  70.1724050  69.9376080  27.5179400  75.3153100  75.0806120
  28.0138520  75.0823970  75.8655000  27.3195470  74.4764940  74.6643760
  13.3979940  69.6966820  80.7157160  14.0456130  69.1464200  80.2752320
  13.8181780  69.9509970  81.5372970  28.9466560  73.9514050  77.6143800
  28.8365840  73.7970090  78.5526070  29.7074150  73.4234990  77.3719210
  27.2932280  69.8908180  84.0726800  27.9304500  70.5042320  84.4385990
  27.4407170  69.9268840  83.1276030  29.8356830  71.7821970  70.8549940
  30.7606140  71.6503150  70.6468230  29.8132620  71.8614790  71.8086390
  29.9095320  72.5532630  73.4806650  29.1146820  72.4877750  74.0099560
  30.1138600  73.4883270  73.4692000  13.1511940  69.8522490  83.4582480
  12.8026760  70.3086310  84.2240660  12.8199640  68.9579620  83.5404910
  20.6636760  71.0434370  86.9801900  20.6025650  71.6356200  87.7297310
  21.6037140  70.9360330  86.8352160  23.3011320  70.7004430  86.6194190
  23.9151730  71.0183720  85.9575270  23.8460880  70.2153020  87.2390050
  13.8232580  69.3798690  86.7333250  14.3715570  69.1986740  85.9699360
  13.8887890  68.5892800  87.2689560  24.0419360  69.2636570  82.9463480
  23.1679200  69.5971680  82.7436410  23.9330110  68.7909750  83.7715350
  24.9491340  71.4707440  84.3305200  24.6204700  70.6559200  83.9506930
  25.8973640  71.4277250  84.2070890  21.7894180  70.1806410  81.8856390
  21.0065970  70.6551910  82.1653150  21.4957110  69.2761240  81.7769570
  26.3415250  70.8829510  79.9305480  26.7823340  70.8274610  79.0827080
  26.0722840  71.7987520  80.0015660  28.2053820  70.5144750  77.9414300
  28.1442220  69.5705970  77.7945320  28.9845850  70.6224840  78.4867760
  13.1334590  70.4853890  74.4070110  13.8913950  70.5982770  73.8334140
  12.6711760  71.3223090  74.3613540  19.6748400  72.5993160  77.3972420
  18.8622910  72.2250050  77.0568300  20.1790040  71.8438240  77.6993610
  24.1773380  69.2635610  78.6355490  24.7802750  69.8355820  79.1104010
  23.4366370  69.8275050  78.4129390  27.3207980  69.6657170  73.9095770
  27.5158610  70.5640620  74.1763200  26.5337850  69.4344250  74.4028720
  15.5059740  71.0117940  72.9472080  16.0352500  70.2247740  72.8180030
  16.1388060  71.6909130  73.1807610  17.6997580  70.7493080  76.0017470
  17.0700320  70.0480390  76.1687600  17.1602720  71.5097210  75.7850630
  17.8253140  70.0277060  88.4369960  17.5437410  70.5310660  87.6730780
  18.2072840  69.2298810  88.0712090  24.4268600  69.4430640  89.0150430
  24.3134050  69.7625250  89.9101950  25.2438340  69.8443150  88.7187710
  23.3326750  77.4623110  59.3785170  23.2520800  76.5477720  59.1076880
  22.9191170  77.9590180  58.6724880  21.4644790  79.2402130  61.2594440
  20.6886890  78.7602570  61.5493010  22.1157720  78.5607780  61.0850600
  15.4810620  79.5521940  62.1370200  14.6495500  79.2970650  62.5366710
  16.0891600  79.6232710  62.8728120  13.8902570  74.5123830  55.9212590
  13.0019270  74.8539800  55.8192470  14.1743760  74.3124150  55.0293420
  11.8535580  77.1129480  61.8052290  12.4251690  76.3451680  61.8055930
  11.8537120  77.4118240  60.8958900  13.0960450  72.5213840  63.5921220
  12.9163290  71.6239590  63.8723980  12.6940530  73.0685710  64.2668170
  21.9358950  74.7229700  61.4933530  22.3123770  73.8501580  61.3807200
  21.8378460  75.0588400  60.6023970  16.0663960  73.0955330  56.9550970
  16.1730710  73.9959060  57.2619730  15.1556320  73.0473300  56.6645620
  25.7183070  72.2180140  58.4261870  26.5392690  71.7276710  58.4687350
  25.7517150  72.8077800  59.1793710  13.7147120  75.0174340  62.2003560
  14.3957230  75.2812710  62.8190960  13.3995170  74.1775210  62.5341570
  17.9071690  76.0641700  61.2876150  18.4149910  76.5622670  61.9281170
  18.4384930  75.2876900  61.1115510  30.0082620  74.2346890  64.9905500
  29.3034790  74.6228600  64.4720610  30.2740540  74.9297180  65.5926430
  16.1907790  70.7040260  65.5539570  16.1926230  71.2212650  64.7485470
  15.3612100  70.2270440  65.5309500  25.9544550  74.1580520  61.1989410
  25.2500120  74.4465410  61.7792520  26.3156710  74.9680630  60.8388970
  15.8723120  72.4150220  63.5610020  16.2139930  73.2592270  63.2663890
  14.9338930  72.5633960  63.6775360  29.0231470  73.6035310  61.5898620
  28.0756380  73.6374290  61.7214050  29.3481460  74.4174260  61.9747980
  19.5551010  69.9032490  59.8854610  19.8625990  69.3479380  59.1690110
  18.6251710  70.0376950  59.7027600  21.9431770  77.9681320  56.6214730
  21.0161050  77.9018700  56.8503200  22.0956590  78.9061450  56.5069970
  21.9300850  74.2398320  53.6181890  20.9904520  74.4012280  53.7034350
  22.2484110  74.9584000  53.0717880  28.4513610  78.9216840  63.5960920
  27.6232240  78.9909930  63.1211050  29.0464090  79.5071150  63.1276750
  25.9729060  79.5301620  57.1249980  25.3541480  79.1921170  56.4776280
  25.9553510  78.8861380  57.8329170  25.4155620  75.7086160  64.5415790
  25.0026800  76.5339870  64.7955780  24.6831570  75.1231200  64.3492150
  17.5488410  78.4946060  59.4034460  17.1445410  77.7823310  58.9080360
  17.6351530  78.1499300  60.2922500  16.2617030  75.2689270  63.1833500
  16.8131620  75.3784610  62.4086750  16.7760540  75.6426870  63.8988730
  24.1493760  78.7688430  54.1322730  24.5887040  77.9310860  53.9860550
  24.8622180  79.4017830  54.2186870  15.9359760  78.7908630  66.7938840
  15.7967530  79.6631430  67.1626240  15.0541120  78.4481440  66.6486780
  27.7310900  70.0231240  52.4463770  27.4183560  70.1158070  53.3462840
  28.4923370  70.6012270  52.3961200  14.2493040  77.3891040  56.9041110
  14.1290640  78.1153130  56.2922380  13.9393930  76.6193950  56.4269020
  28.9412190  74.7602740  68.4237910  28.3256460  75.2682410  67.8953370
  28.6208610  73.8601070  68.3663850  16.7156700  70.7326110  60.2864780
  16.2724850  71.5135650  59.9549300  17.2741690  71.0556000  60.9935720
  21.0026510  73.5994630  65.8900100  20.5405880  73.8077650  66.7020040
  20.6004620  72.7853980  65.5870770  26.0031020  74.8203580  67.0196760
  25.1524610  74.5209330  67.3405830  25.8432810  75.0645590  66.1080580
  23.0980730  76.3205330  69.1195550  23.4234140  75.4869080  68.7797780
  23.8861060  76.8433850  69.2673880  19.8315520  70.3536810  55.1670610
  19.2069700  70.3496680  55.8923920  19.7445640  69.4867770  54.7706580
  18.7532600  71.2773440  62.1454380  19.0504930  72.1836270  62.0646400
  19.3018160  70.7892220  61.5313950  16.5070920  75.8559680  58.0146030
  16.2811840  75.6396850  58.9192650  15.7263450  76.2888140  57.6692000
  23.7368680  75.8623050  56.6136680  23.1377570  76.5858850  56.4300300
  24.2848290  75.7999830  55.8313130  18.9470130  76.7545260  68.6806300
  18.8513730  75.8139990  68.5306700  19.7902110  76.9760330  68.2854370
  22.3433550  74.4986590  58.6439960  22.7363120  74.8158790  57.8308650
  22.7050400  73.6198470  58.7584480  14.0780670  73.1658930  66.8340080
  13.6844060  74.0134140  67.0412860  13.3899070  72.5285300  67.0248720
  20.6525720  73.2493900  69.9036820  19.9624040  73.0566100  70.5382910
  21.3958020  73.5328540  70.4361120  11.3797720  71.0887390  60.8670160
  11.0910770  71.6590250  61.5795140  12.1243480  70.6091840  61.2301390
  11.5667950  75.0307510  52.0772880  11.4842620  75.9738270  52.2187870
  11.2151010  74.8882420  51.1985230  22.9288690  77.0892340  62.7390740
  22.1969810  77.5979150  63.0880840  22.5313030  76.2722320  62.4379520
  19.3666080  73.7646540  61.1443230  19.3702140  73.3236490  60.2947770
  20.2617200  74.0863870  61.2515050  15.2168460  73.6473030  60.1037440
  14.8768510  74.1248260  60.8604490  14.4545780  73.1938150  59.7438540
  19.4286230  74.7658620  54.1349990  19.5499050  74.7245100  55.0835810
  19.0434740  75.6282770  53.9796720  23.3914600  72.5426020  62.1513680
  23.4087340  72.9934670  62.9955530  23.1430180  71.6431660  62.3647120
  18.4407730  77.0759760  53.5333290  17.8724630  76.6278010  52.9069200
  19.1496730  77.4352540  52.9998440  26.8185350  69.9558200  67.9900060
  27.1431120  69.2247860  68.5158040  26.8541860  69.6371840  67.0881050
  19.6674050  77.8248320  62.8908640  20.0344180  77.3506890  63.6369980
  19.4779110  78.6989890  63.2316980  12.5314540  72.5692010  59.0202110
  12.2461460  72.2047680  59.8580730  12.4693400  71.8372470  58.4065250
  17.4573420  76.8656960  65.2092850  17.1530490  77.7448940  65.4343210
  18.4119880  76.9256750  65.2450290  22.2053130  71.4621270  55.7415480
  21.3917740  70.9634440  55.6660790  22.0115080  72.3019520  55.3251830
  22.1261990  80.1392370  67.4855090  22.0599300  79.2188040  67.2312680
  21.4967130  80.2367810  68.1999730  24.9201520  75.8340920  54.0377640
  25.8081140  76.1458150  53.8628980  24.8906610  74.9613170  53.6458220
  13.5137150  77.7059700  66.3564210  13.1552090  78.3713550  66.9437550
  13.2191710  76.8743250  66.7276830  16.7150270  78.1643940  69.2403760
  16.4150410  78.3101120  68.3431580  17.4861510  77.6049230  69.1477150
  27.1915790  77.1452760  53.5057500  27.1079510  77.5766980  52.6553940
  27.9109980  77.6051110  53.9384320  28.2689930  79.6020280  66.5827470
  27.5438120  80.1949060  66.3856860  28.7965390  79.5943820  65.7840840
  12.0245200  77.7050960  52.9798810  12.8940050  77.9875760  53.2634730
  11.5335520  78.5186830  52.8647620  19.1880010  79.0924170  57.1007090
  19.6442790  79.9029420  57.3267280  18.8368220  78.7747310  57.9325580
  15.0891790  69.4361820  57.5729610  14.9606420  69.4279720  58.5214530
  14.2653810  69.7744910  57.2220620  12.0885720  71.1952940  67.0336310
  11.3744240  71.3949860  67.6388920  12.5080760  70.4192510  67.4051110
  14.0091710  79.5224430  55.1080870  13.4019660  80.2623330  55.1176170
  14.4841060  79.6123790  54.2819070  23.5824500  73.6875250  64.7837760
  23.9505320  72.8670460  65.1117330  22.7222700  73.7477140  65.1993410
  26.9486530  72.6432190  55.5925320  26.3199690  72.7477860  54.8783550
  26.4538450  72.8628970  56.3819200  18.9170560  74.9218140  57.0083200
  18.2086710  75.3904480  57.4496810  19.2015040  74.2640150  57.6428390
  20.5426490  76.3414840  65.0075730  21.0411740  76.8160660  65.6727580
  20.6849440  75.4178360  65.2145760  22.9485990  71.6468800  58.4478990
  22.8253770  71.6654930  57.4988500  23.8970550  71.6947740  58.5677390
  17.1205580  73.2303220  54.3833910  17.9696110  73.6673370  54.3174100
  16.7536850  73.5423480  55.2105970  27.7493350  72.5582800  65.8504120
  27.2466950  73.2988200  66.1897930  28.5650010  72.9466800  65.5340910
  26.0415360  77.8015980  59.2965480  25.1005500  77.8166210  59.4713170
  26.3559430  77.0151940  59.7425780  16.0197000  79.4835580  52.8569440
  16.7860270  79.3716940  53.4194870  16.0971690  78.7873550  52.2046210
  14.7143760  76.9160650  53.5402330  14.7947350  75.9688160  53.6519730
  15.6063510  77.2467530  53.6462990  12.2414560  78.7375570  68.7758500
  12.7453580  78.1582850  69.3474730  11.5021980  79.0215800  69.3134870
  14.2737640  76.8805160  69.6708570  14.3142980  76.5819030  70.5793800
  15.1283140  77.2812770  69.5116090  18.0516030  79.4800710  54.8312080
  18.4732450  79.3140580  55.6743470  18.1766870  78.6700940  54.3367220
  16.2143450  75.4597260  67.6383060  15.6839910  74.9688210  67.0106400
  16.8831520  75.8881460  67.1040990  20.5643670  78.5038320  52.0789180
  21.0849330  77.7887340  51.7130330  21.2112070  79.1424190  52.3789690
  25.1121510  79.9266720  67.4024250  25.5262530  80.0811800  68.2514670
  24.1772510  80.0521940  67.5650030  25.5843680  77.2662880  69.4063400
  26.1664450  76.5115200  69.3183880  25.7605450  77.7970320  68.6294880
  16.7015750  72.4259630  67.7180350  16.6072620  71.8080380  66.9931220
  16.1213140  73.1525920  67.4910260  19.4677190  70.9832870  64.7507740
  19.0194490  71.0057130  63.9053290  18.8342390  70.5851890  65.3478040
  22.2100640  77.6103380  66.7558020  22.3296850  77.0144520  67.4952860
  23.0694640  77.6473070  66.3359320  24.5488540  78.1640570  65.3320530
  24.0223760  78.6883190  64.7285670  24.8919880  78.7967960  65.9630260
  16.9474930  75.5533940  51.7770240  16.7463990  74.6901300  52.1383580
  16.7766980  75.4667300  50.8391840  18.9769410  74.1524730  68.0133840
  19.5669100  73.8440580  68.7011660  18.1589650  73.6804480  68.1693740
  23.7962840  73.7690540  68.2466860  23.1078360  73.1072080  68.1816850
  24.5168860  73.3228810  68.6915320  24.4263240  70.3642170  54.3057120
  24.7065530  69.5210070  54.6616540  23.6528970  70.5965280  54.8195870
  15.7457730  72.6534560  51.7648120  16.0483630  72.6601990  50.8567270
  16.4852320  72.3032420  52.2615780  18.9642660  71.5969180  52.7504320
  18.6164660  70.9193170  52.1706770  19.1655430  71.1358690  53.5647710
  28.8043960  79.6018900  54.9161030  29.5662870  80.1715550  55.0220720
  28.8198330  79.0346100  55.6869340  12.3048300  78.1256830  59.1468690
  11.6497140  77.8568470  58.5028390  13.1426250  78.0161310  58.6970670
  25.2538740  72.9198120  53.3687180  25.6723620  72.7329100  52.5283840
  24.9474800  72.0677170  53.6790110  28.7528470  77.8322260  57.0662980
  28.3772070  77.0650190  56.6344270  28.0231590  78.2144960  57.5537910
  13.3424230  78.5109400  63.6872030  13.7097270  78.4236800  64.5668050
  12.7735050  77.7475950  63.5878890  28.1428090  76.9793780  66.7002500
  27.9114180  76.7506530  65.8000450  28.4032640  77.8993330  66.6547390
  12.8940230  75.4218490  67.5930450  11.9996280  75.3885250  67.9324160
  13.4337780  75.6205280  68.3581700  26.5816160  72.2050210  69.4782200
  27.4586340  72.2133610  69.8616200  26.5937000  71.4681050  68.8674550
  11.5186380  75.3355760  55.0894020  10.6150460  75.5985960  54.9145680
  12.0027000  75.6066930  54.3093980  28.0279430  76.0579750  60.3670220
  28.5516910  75.5642400  59.7360390  28.6138850  76.1930110  61.1117790
  28.2069150  76.1419620  63.8889770  27.2571860  76.1083160  64.0034760
  28.3882160  77.0519730  63.6539540  14.0613590  74.3921300  52.9988400
  14.7705290  73.9704520  52.5135680  13.3453530  74.4596530  52.3671750
  13.7087750  70.4460630  52.0391050  14.4315880  70.9869570  52.3572270
  13.9812270  70.1724050  51.1632590  27.5179400  75.3153100  56.3062630
  28.0138520  75.0823970  57.0911510  27.3195470  74.4764940  55.8900270
  13.3979940  69.6966820  61.9413670  14.0456130  69.1464200  61.5008830
  13.8181780  69.9509970  62.7629480  28.9466560  73.9514050  58.8400310
  28.8365840  73.7970090  59.7782580  29.7074150  73.4234990  58.5975720
  27.2932280  69.8908180  65.2983310  27.9304500  70.5042320  65.6642500
  27.4407170  69.9268840  64.3532540  29.8356830  71.7821970  52.0806450
  30.7606140  71.6503150  51.8724740  29.8132620  71.8614790  53.0342900
  29.9095320  72.5532630  54.7063160  29.1146820  72.4877750  55.2356070
  30.1138600  73.4883270  54.6948510  13.1511940  69.8522490  64.6838990
  12.8026760  70.3086310  65.4497170  12.8199640  68.9579620  64.7661420
  20.6636760  71.0434370  68.2058410  20.6025650  71.6356200  68.9553820
  21.6037140  70.9360330  68.0608670  23.3011320  70.7004430  67.8450700
  23.9151730  71.0183720  67.1831780  23.8460880  70.2153020  68.4646560
  13.8232580  69.3798690  67.9589760  14.3715570  69.1986740  67.1955870
  13.8887890  68.5892800  68.4946070  24.0419360  69.2636570  64.1719990
  23.1679200  69.5971680  63.9692920  23.9330110  68.7909750  64.9971860
  24.9491340  71.4707440  65.5561710  24.6204700  70.6559200  65.1763440
  25.8973640  71.4277250  65.4327400  21.7894180  70.1806410  63.1112900
  21.0065970  70.6551910  63.3909660  21.4957110  69.2761240  63.0026080
  26.3415250  70.8829510  61.1561990  26.7823340  70.8274610  60.3083590
  26.0722840  71.7987520  61.2272170  28.2053820  70.5144750  59.1670810
  28.1442220  69.5705970  59.0201830  28.9845850  70.6224840  59.7124270
  13.1334590  70.4853890  55.6326620  13.8913950  70.5982770  55.0590650
  12.6711760  71.3223090  55.5870050  19.6748400  72.5993160  58.6228930
  18.8622910  72.2250050  58.2824810  20.1790040  71.8438240  58.9250120
  24.1773380  69.2635610  59.8612000  24.7802750  69.8355820  60.3360520
  23.4366370  69.8275050  59.6385900  27.3207980  69.6657170  55.1352280
  27.5158610  70.5640620  55.4019710  26.5337850  69.4344250  55.6285230
  15.5059740  71.0117940  54.1728590  16.0352500  70.2247740  54.0436540
  16.1388060  71.6909130  54.4064120  17.6997580  70.7493080  57.2273980
  17.0700320  70.0480390  57.3944110  17.1602720  71.5097210  57.0107140
  17.8253140  70.0277060  69.6626470  17.5437410  70.5310660  68.8987290
  18.2072840  69.2298810  69.2968600  24.4268600  69.4430640  70.2406940
  24.3134050  69.7625250  71.1358460  25.2438340  69.8443150  69.9444220
  23.3326750  77.4623110  40.6041680  23.2520800  76.5477720  40.3333390
  22.9191170  77.9590180  39.8981390  21.4644790  79.2402130  42.4850950
  20.6886890  78.7602570  42.7749520  22.1157720  78.5607780  42.3107110
  15.4810620  79.5521940  43.3626710  14.6495500  79.2970650  43.7623220
  16.0891600  79.6232710  44.0984630  13.8902570  74.5123830  37.1469100
  13.0019270  74.8539800  37.0448980  14.1743760  74.3124150  36.2549930
  11.8535580  77.1129480  43.0308800  12.4251690  76.3451680  43.0312440
  11.8537120  77.4118240  42.1215410  13.0960450  72.5213840  44.8177730
  12.9163290  71.6239590  45.0980490  12.6940530  73.0685710  45.4924680
  21.9358950  74.7229700  42.7190040  22.3123770  73.8501580  42.6063710
  21.8378460  75.0588400  41.8280480  16.0663960  73.0955330  38.1807480
  16.1730710  73.9959060  38.4876240  15.1556320  73.0473300  37.8902130
  25.7183070  72.2180140  39.6518380  26.5392690  71.7276710  39.6943860
  25.7517150  72.8077800  40.4050220  13.7147120  75.0174340  43.4260070
  14.3957230  75.2812710  44.0447470  13.3995170  74.1775210  43.7598080
  17.9071690  76.0641700  42.5132660  18.4149910  76.5622670  43.1537680
  18.4384930  75.2876900  42.3372020  30.0082620  74.2346890  46.2162010
  29.3034790  74.6228600  45.6977120  30.2740540  74.9297180  46.8182940
  16.1907790  70.7040260  46.7796080  16.1926230  71.2212650  45.9741980
  15.3612100  70.2270440  46.7566010  25.9544550  74.1580520  42.4245920
  25.2500120  74.4465410  43.0049030  26.3156710  74.9680630  42.0645480
  15.8723120  72.4150220  44.7866530  16.2139930  73.2592270  44.4920400
  14.9338930  72.5633960  44.9031870  29.0231470  73.6035310  42.8155130
  28.0756380  73.6374290  42.9470560  29.3481460  74.4174260  43.2004490
  19.5551010  69.9032490  41.1111120  19.8625990  69.3479380  40.3946620
  18.6251710  70.0376950  40.9284110  21.9431770  77.9681320  37.8471240
  21.0161050  77.9018700  38.0759710  22.0956590  78.9061450  37.7326480
  21.9300850  74.2398320  34.8438400  20.9904520  74.4012280  34.9290860
  22.2484110  74.9584000  34.2974390  28.4513610  78.9216840  44.8217430
  27.6232240  78.9909930  44.3467560  29.0464090  79.5071150  44.3533260
  25.9729060  79.5301620  38.3506490  25.3541480  79.1921170  37.7032790
  25.9553510  78.8861380  39.0585680  25.4155620  75.7086160  45.7672300
  25.0026800  76.5339870  46.0212290  24.6831570  75.1231200  45.5748660
  17.5488410  78.4946060  40.6290970  17.1445410  77.7823310  40.1336870
  17.6351530  78.1499300  41.5179010  16.2617030  75.2689270  44.4090010
  16.8131620  75.3784610  43.6343260  16.7760540  75.6426870  45.1245240
  24.1493760  78.7688430  35.3579240  24.5887040  77.9310860  35.2117060
  24.8622180  79.4017830  35.4443380  15.9359760  78.7908630  48.0195350
  15.7967530  79.6631430  48.3882750  15.0541120  78.4481440  47.8743290
  27.7310900  70.0231240  33.6720280  27.4183560  70.1158070  34.5719350
  28.4923370  70.6012270  33.6217710  14.2493040  77.3891040  38.1297620
  14.1290640  78.1153130  37.5178890  13.9393930  76.6193950  37.6525530
  28.9412190  74.7602740  49.6494420  28.3256460  75.2682410  49.1209880
  28.6208610  73.8601070  49.5920360  16.7156700  70.7326110  41.5121290
  16.2724850  71.5135650  41.1805810  17.2741690  71.0556000  42.2192230
  21.0026510  73.5994630  47.1156610  20.5405880  73.8077650  47.9276550
  20.6004620  72.7853980  46.8127280  26.0031020  74.8203580  48.2453270
  25.1524610  74.5209330  48.5662340  25.8432810  75.0645590  47.3337090
  23.0980730  76.3205330  50.3452060  23.4234140  75.4869080  50.0054290
  23.8861060  76.8433850  50.4930390  19.8315520  70.3536810  36.3927120
  19.2069700  70.3496680  37.1180430  19.7445640  69.4867770  35.9963090
  18.7532600  71.2773440  43.3710890  19.0504930  72.1836270  43.2902910
  19.3018160  70.7892220  42.7570460  16.5070920  75.8559680  39.2402540
  16.2811840  75.6396850  40.1449160  15.7263450  76.2888140  38.8948510
  23.7368680  75.8623050  37.8393190  23.1377570  76.5858850  37.6556810
  24.2848290  75.7999830  37.0569640  18.9470130  76.7545260  49.9062810
  18.8513730  75.8139990  49.7563210  19.7902110  76.9760330  49.5110880
  22.3433550  74.4986590  39.8696470  22.7363120  74.8158790  39.0565160
  22.7050400  73.6198470  39.9840990  14.0780670  73.1658930  48.0596590
  13.6844060  74.0134140  48.2669370  13.3899070  72.5285300  48.2505230
  20.6525720  73.2493900  51.1293330  19.9624040  73.0566100  51.7639420
  21.3958020  73.5328540  51.6617630  11.3797720  71.0887390  42.0926670
  11.0910770  71.6590250  42.8051650  12.1243480  70.6091840  42.4557900
  11.5667950  75.0307510  33.3029390  11.4842620  75.9738270  33.4444380
  11.2151010  74.8882420  32.4241740  22.9288690  77.0892340  43.9647250
  22.1969810  77.5979150  44.3137350  22.5313030  76.2722320  43.6636030
  19.3666080  73.7646540  42.3699740  19.3702140  73.3236490  41.5204280
  20.2617200  74.0863870  42.4771560  15.2168460  73.6473030  41.3293950
  14.8768510  74.1248260  42.0861000  14.4545780  73.1938150  40.9695050
  19.4286230  74.7658620  35.3606500  19.5499050  74.7245100  36.3092320
  19.0434740  75.6282770  35.2053230  23.3914600  72.5426020  43.3770190
  23.4087340  72.9934670  44.2212040  23.1430180  71.6431660  43.5903630
  18.4407730  77.0759760  34.7589800  17.8724630  76.6278010  34.1325710
  19.1496730  77.4352540  34.2254950  26.8185350  69.9558200  49.2156570
  27.1431120  69.2247860  49.7414550  26.8541860  69.6371840  48.3137560
  19.6674050  77.8248320  44.1165150  20.0344180  77.3506890  44.8626490
  19.4779110  78.6989890  44.4573490  12.5314540  72.5692010  40.2458620
  12.2461460  72.2047680  41.0837240  12.4693400  71.8372470  39.6321760
  17.4573420  76.8656960  46.4349360  17.1530490  77.7448940  46.6599720
  18.4119880  76.9256750  46.4706800  22.2053130  71.4621270  36.9671990
  21.3917740  70.9634440  36.8917300  22.0115080  72.3019520  36.5508340
  22.1261990  80.1392370  48.7111600  22.0599300  79.2188040  48.4569190
  21.4967130  80.2367810  49.4256240  24.9201520  75.8340920  35.2634150
  25.8081140  76.1458150  35.0885490  24.8906610  74.9613170  34.8714730
  13.5137150  77.7059700  47.5820720  13.1552090  78.3713550  48.1694060
  13.2191710  76.8743250  47.9533340  16.7150270  78.1643940  50.4660270
  16.4150410  78.3101120  49.5688090  17.4861510  77.6049230  50.3733660
  27.1915790  77.1452760  34.7314010  27.1079510  77.5766980  33.8810450
  27.9109980  77.6051110  35.1640830  28.2689930  79.6020280  47.8083980
  27.5438120  80.1949060  47.6113370  28.7965390  79.5943820  47.0097350
  12.0245200  77.7050960  34.2055320  12.8940050  77.9875760  34.4891240
  11.5335520  78.5186830  34.0904130  19.1880010  79.0924170  38.3263600
  19.6442790  79.9029420  38.5523790  18.8368220  78.7747310  39.1582090
  15.0891790  69.4361820  38.7986120  14.9606420  69.4279720  39.7471040
  14.2653810  69.7744910  38.4477130  12.0885720  71.1952940  48.2592820
  11.3744240  71.3949860  48.8645430  12.5080760  70.4192510  48.6307620
  14.0091710  79.5224430  36.3337380  13.4019660  80.2623330  36.3432680
  14.4841060  79.6123790  35.5075580  23.5824500  73.6875250  46.0094270
  23.9505320  72.8670460  46.3373840  22.7222700  73.7477140  46.4249920
  26.9486530  72.6432190  36.8181830  26.3199690  72.7477860  36.1040060
  26.4538450  72.8628970  37.6075710  18.9170560  74.9218140  38.2339710
  18.2086710  75.3904480  38.6753320  19.2015040  74.2640150  38.8684900
  20.5426490  76.3414840  46.2332240  21.0411740  76.8160660  46.8984090
  20.6849440  75.4178360  46.4402270  22.9485990  71.6468800  39.6735500
  22.8253770  71.6654930  38.7245010  23.8970550  71.6947740  39.7933900
  17.1205580  73.2303220  35.6090420  17.9696110  73.6673370  35.5430610
  16.7536850  73.5423480  36.4362480  27.7493350  72.5582800  47.0760630
  27.2466950  73.2988200  47.4154440  28.5650010  72.9466800  46.7597420
  26.0415360  77.8015980  40.5221990  25.1005500  77.8166210  40.6969680
  26.3559430  77.0151940  40.9682290  16.0197000  79.4835580  34.0825950
  16.7860270  79.3716940  34.6451380  16.0971690  78.7873550  33.4302720
  14.7143760  76.9160650  34.7658840  14.7947350  75.9688160  34.8776240
  15.6063510  77.2467530  34.8719500  12.2414560  78.7375570  50.0015010
  12.7453580  78.1582850  50.5731240  11.5021980  79.0215800  50.5391380
  14.2737640  76.8805160  50.8965080  14.3142980  76.5819030  51.8050310
  15.1283140  77.2812770  50.7372600  18.0516030  79.4800710  36.0568590
  18.4732450  79.3140580  36.8999980  18.1766870  78.6700940  35.5623730
  16.2143450  75.4597260  48.8639570  15.6839910  74.9688210  48.2362910
  16.8831520  75.8881460  48.3297500  20.5643670  78.5038320  33.3045690
  21.0849330  77.7887340  32.9386840  21.2112070  79.1424190  33.6046200
  25.1121510  79.9266720  48.6280760  25.5262530  80.0811800  49.4771180
  24.1772510  80.0521940  48.7906540  25.5843680  77.2662880  50.6319910
  26.1664450  76.5115200  50.5440390  25.7605450  77.7970320  49.8551390
  16.7015750  72.4259630  48.9436860  16.6072620  71.8080380  48.2187730
  16.1213140  73.1525920  48.7166770  19.4677190  70.9832870  45.9764250
  19.0194490  71.0057130  45.1309800  18.8342390  70.5851890  46.5734550
  22.2100640  77.6103380  47.9814530  22.3296850  77.0144520  48.7209370
  23.0694640  77.6473070  47.5615830  24.5488540  78.1640570  46.5577040
  24.0223760  78.6883190  45.9542180  24.8919880  78.7967960  47.1886770
  16.9474930  75.5533940  33.0026750  16.7463990  74.6901300  33.3640090
  16.7766980  75.4667300  32.0648350  18.9769410  74.1524730  49.2390350
  19.5669100  73.8440580  49.9268170  18.1589650  73.6804480  49.3950250
  23.7962840  73.7690540  49.4723370  23.1078360  73.1072080  49.4073360
  24.5168860  73.3228810  49.9171830  24.4263240  70.3642170  35.5313630
  24.7065530  69.5210070  35.8873050  23.6528970  70.5965280  36.0452380
  15.7457730  72.6534560  32.9904630  16.0483630  72.6601990  32.0823780
  16.4852320  72.3032420  33.4872290  18.9642660  71.5969180  33.9760830
  18.6164660  70.9193170  33.3963280  19.1655430  71.1358690  34.7904220
  28.8043960  79.6018900  36.1417540  29.5662870  80.1715550  36.2477230
  28.8198330  79.0346100  36.9125850  12.3048300  78.1256830  40.3725200
  11.6497140  77.8568470  39.7284900  13.1426250  78.0161310  39.9227180
  25.2538740  72.9198120  34.5943690  25.6723620  72.7329100  33.7540350
  24.9474800  72.0677170  34.9046620  28.7528470  77.8322260  38.2919490
  28.3772070  77.0650190  37.8600780  28.0231590  78.2144960  38.7794420
  13.3424230  78.5109400  44.9128540  13.7097270  78.4236800  45.7924560
  12.7735050  77.7475950  44.8135400  28.1428090  76.9793780  47.9259010
  27.9114180  76.7506530  47.0256960  28.4032640  77.8993330  47.8803900
  12.8940230  75.4218490  48.8186960  11.9996280  75.3885250  49.1580670
  13.4337780  75.6205280  49.5838210  26.5816160  72.2050210  50.7038710
  27.4586340  72.2133610  51.0872710  26.5937000  71.4681050  50.0931060
  11.5186380  75.3355760  36.3150530  10.6150460  75.5985960  36.1402190
  12.0027000  75.6066930  35.5350490  28.0279430  76.0579750  41.5926730
  28.5516910  75.5642400  40.9616900  28.6138850  76.1930110  42.3374300
  28.2069150  76.1419620  45.1146280  27.2571860  76.1083160  45.2291270
  28.3882160  77.0519730  44.8796050  14.0613590  74.3921300  34.2244910
  14.7705290  73.9704520  33.7392190  13.3453530  74.4596530  33.5928260
  13.7087750  70.4460630  33.2647560  14.4315880  70.9869570  33.5828780
  13.9812270  70.1724050  32.3889100  27.5179400  75.3153100  37.5319140
  28.0138520  75.0823970  38.3168020  27.3195470  74.4764940  37.1156780
  13.3979940  69.6966820  43.1670180  14.0456130  69.1464200  42.7265340
  13.8181780  69.9509970  43.9885990  28.9466560  73.9514050  40.0656820
  28.8365840  73.7970090  41.0039090  29.7074150  73.4234990  39.8232230
  27.2932280  69.8908180  46.5239820  27.9304500  70.5042320  46.8899010
  27.4407170  69.9268840  45.5789050  29.8356830  71.7821970  33.3062960
  30.7606140  71.6503150  33.0981250  29.8132620  71.8614790  34.2599410
  29.9095320  72.5532630  35.9319670  29.1146820  72.4877750  36.4612580
  30.1138600  73.4883270  35.9205020  13.1511940  69.8522490  45.9095500
  12.8026760  70.3086310  46.6753680  12.8199640  68.9579620  45.9917930
  20.6636760  71.0434370  49.4314920  20.6025650  71.6356200  50.1810330
  21.6037140  70.9360330  49.2865180  23.3011320  70.7004430  49.0707210
  23.9151730  71.0183720  48.4088290  23.8460880  70.2153020  49.6903070
  13.8232580  69.3798690  49.1846270  14.3715570  69.1986740  48.4212380
  13.8887890  68.5892800  49.7202580  24.0419360  69.2636570  45.3976500
  23.1679200  69.5971680  45.1949430  23.9330110  68.7909750  46.2228370
  24.9491340  71.4707440  46.7818220  24.6204700  70.6559200  46.4019950
  25.8973640  71.4277250  46.6583910  21.7894180  70.1806410  44.3369410
  21.0065970  70.6551910  44.6166170  21.4957110  69.2761240  44.2282590
  26.3415250  70.8829510  42.3818500  26.7823340  70.8274610  41.5340100
  26.0722840  71.7987520  42.4528680  28.2053820  70.5144750  40.3927320
  28.1442220  69.5705970  40.2458340  28.9845850  70.6224840  40.9380780
  13.1334590  70.4853890  36.8583130  13.8913950  70.5982770  36.2847160
  12.6711760  71.3223090  36.8126560  19.6748400  72.5993160  39.8485440
  18.8622910  72.2250050  39.5081320  20.1790040  71.8438240  40.1506630
  24.1773380  69.2635610  41.0868510  24.7802750  69.8355820  41.5617030
  23.4366370  69.8275050  40.8642410  27.3207980  69.6657170  36.3608790
  27.5158610  70.5640620  36.6276220  26.5337850  69.4344250  36.8541740
  15.5059740  71.0117940  35.3985100  16.0352500  70.2247740  35.2693050
  16.1388060  71.6909130  35.6320630  17.6997580  70.7493080  38.4530490
  17.0700320  70.0480390  38.6200620  17.1602720  71.5097210  38.2363650
  17.8253140  70.0277060  50.8882980  17.5437410  70.5310660  50.1243800
  18.2072840  69.2298810  50.5225110  24.4268600  69.4430640  51.4663450
  24.3134050  69.7625250  52.3614970  25.2438340  69.8443150  51.1700730
  23.3326750  77.4623110  21.8298190  23.2520800  76.5477720  21.5589900
  22.9191170  77.9590180  21.1237900  21.4644790  79.2402130  23.7107460
  20.6886890  78.7602570  24.0006030  22.1157720  78.5607780  23.5363620
  15.4810620  79.5521940  24.5883220  14.6495500  79.2970650  24.9879730
  16.0891600  79.6232710  25.3241140  13.8902570  74.5123830  18.3725610
  13.0019270  74.8539800  18.2705490  14.1743760  74.3124150  17.4806440
  11.8535580  77.1129480  24.2565310  12.4251690  76.3451680  24.2568950
  11.8537120  77.4118240  23.3471920  13.0960450  72.5213840  26.0434240
  12.9163290  71.6239590  26.3237000  12.6940530  73.0685710  26.7181190
  21.9358950  74.7229700  23.9446550  22.3123770  73.8501580  23.8320220
  21.8378460  75.0588400  23.0536990  16.0663960  73.0955330  19.4063990
  16.1730710  73.9959060  19.7132750  15.1556320  73.0473300  19.1158640
  25.7183070  72.2180140  20.8774890  26.5392690  71.7276710  20.9200370
  25.7517150  72.8077800  21.6306730  13.7147120  75.0174340  24.6516580
  14.3957230  75.2812710  25.2703980  13.3995170  74.1775210  24.9854590
  17.9071690  76.0641700  23.7389170  18.4149910  76.5622670  24.3794190
  18.4384930  75.2876900  23.5628530  30.0082620  74.2346890  27.4418520
  29.3034790  74.6228600  26.9233630  30.2740540  74.9297180  28.0439450
  16.1907790  70.7040260  28.0052590  16.1926230  71.2212650  27.1998490
  15.3612100  70.2270440  27.9822520  25.9544550  74.1580520  23.6502430
  25.2500120  74.4465410  24.2305540  26.3156710  74.9680630  23.2901990
  15.8723120  72.4150220  26.0123040  16.2139930  73.2592270  25.7176910
  14.9338930  72.5633960  26.1288380  29.0231470  73.6035310  24.0411640
  28.0756380  73.6374290  24.1727070  29.3481460  74.4174260  24.4261000
  19.5551010  69.9032490  22.3367630  19.8625990  69.3479380  21.6203130
  18.6251710  70.0376950  22.1540620  21.9431770  77.9681320  19.0727750
  21.0161050  77.9018700  19.3016220  22.0956590  78.9061450  18.9582990
  21.9300850  74.2398320  16.0694910  20.9904520  74.4012280  16.1547370
  22.2484110  74.9584000  15.5230900  28.4513610  78.9216840  26.0473940
  27.6232240  78.9909930  25.5724070  29.0464090  79.5071150  25.5789770
  25.9729060  79.5301620  19.5763000  25.3541480  79.1921170  18.9289300
  25.9553510  78.8861380  20.2842190  25.4155620  75.7086160  26.9928810
  25.0026800  76.5339870  27.2468800  24.6831570  75.1231200  26.8005170
  17.5488410  78.4946060  21.8547480  17.1445410  77.7823310  21.3593380
  17.6351530  78.1499300  22.7435520  16.2617030  75.2689270  25.6346520
  16.8131620  75.3784610  24.8599770  16.7760540  75.6426870  26.3501750
  24.1493760  78.7688430  16.5835750  24.5887040  77.9310860  16.4373570
  24.8622180  79.4017830  16.6699890  15.9359760  78.7908630  29.2451860
  15.7967530  79.6631430  29.6139260  15.0541120  78.4481440  29.0999800
  27.7310900  70.0231240  14.8976790  27.4183560  70.1158070  15.7975860
  28.4923370  70.6012270  14.8474220  14.2493040  77.3891040  19.3554130
  14.1290640  78.1153130  18.7435400  13.9393930  76.6193950  18.8782040
  28.9412190  74.7602740  30.8750930  28.3256460  75.2682410  30.3466390
  28.6208610  73.8601070  30.8176870  16.7156700  70.7326110  22.7377800
  16.2724850  71.5135650  22.4062320  17.2741690  71.0556000  23.4448740
  21.0026510  73.5994630  28.3413120  20.5405880  73.8077650  29.1533060
  20.6004620  72.7853980  28.0383790  26.0031020  74.8203580  29.4709780
  25.1524610  74.5209330  29.7918850  25.8432810  75.0645590  28.5593600
  23.0980730  76.3205330  31.5708570  23.4234140  75.4869080  31.2310800
  23.8861060  76.8433850  31.7186900  19.8315520  70.3536810  17.6183630
  19.2069700  70.3496680  18.3436940  19.7445640  69.4867770  17.2219600
  18.7532600  71.2773440  24.5967400  19.0504930  72.1836270  24.5159420
  19.3018160  70.7892220  23.9826970  16.5070920  75.8559680  20.4659050
  16.2811840  75.6396850  21.3705670  15.7263450  76.2888140  20.1205020
  23.7368680  75.8623050  19.0649700  23.1377570  76.5858850  18.8813320
  24.2848290  75.7999830  18.2826150  18.9470130  76.7545260  31.1319320
  18.8513730  75.8139990  30.9819720  19.7902110  76.9760330  30.7367390
  22.3433550  74.4986590  21.0952980  22.7363120  74.8158790  20.2821670
  22.7050400  73.6198470  21.2097500  14.0780670  73.1658930  29.2853100
  13.6844060  74.0134140  29.4925880  13.3899070  72.5285300  29.4761740
  20.6525720  73.2493900  32.3549840  19.9624040  73.0566100  32.9895930
  21.3958020  73.5328540  32.8874140  11.3797720  71.0887390  23.3183180
  11.0910770  71.6590250  24.0308160  12.1243480  70.6091840  23.6814410
  11.5667950  75.0307510  14.5285900  11.4842620  75.9738270  14.6700890
  11.2151010  74.8882420  13.6498250  22.9288690  77.0892340  25.1903760
  22.1969810  77.5979150  25.5393860  22.5313030  76.2722320  24.8892540
  19.3666080  73.7646540  23.5956250  19.3702140  73.3236490  22.7460790
  20.2617200  74.0863870  23.7028070  15.2168460  73.6473030  22.5550460
  14.8768510  74.1248260  23.3117510  14.4545780  73.1938150  22.1951560
  19.4286230  74.7658620  16.5863010  19.5499050  74.7245100  17.5348830
  19.0434740  75.6282770  16.4309740  23.3914600  72.5426020  24.6026700
  23.4087340  72.9934670  25.4468550  23.1430180  71.6431660  24.8160140
  18.4407730  77.0759760  15.9846310  17.8724630  76.6278010  15.3582220
  19.1496730  77.4352540  15.4511460  26.8185350  69.9558200  30.4413080
  27.1431120  69.2247860  30.9671060  26.8541860  69.6371840  29.5394070
  19.6674050  77.8248320  25.3421660  20.0344180  77.3506890  26.0883000
  19.4779110  78.6989890  25.6830000  12.5314540  72.5692010  21.4715130
  12.2461460  72.2047680  22.3093750  12.4693400  71.8372470  20.8578270
  17.4573420  76.8656960  27.6605870  17.1530490  77.7448940  27.8856230
  18.4119880  76.9256750  27.6963310  22.2053130  71.4621270  18.1928500
  21.3917740  70.9634440  18.1173810  22.0115080  72.3019520  17.7764850
  22.1261990  80.1392370  29.9368110  22.0599300  79.2188040  29.6825700
  21.4967130  80.2367810  30.6512750  24.9201520  75.8340920  16.4890660
  25.8081140  76.1458150  16.3142000  24.8906610  74.9613170  16.0971240
  13.5137150  77.7059700  28.8077230  13.1552090  78.3713550  29.3950570
  13.2191710  76.8743250  29.1789850  16.7150270  78.1643940  31.6916780
  16.4150410  78.3101120  30.7944600  17.4861510  77.6049230  31.5990170
  27.1915790  77.1452760  15.9570520  27.1079510  77.5766980  15.1066960
  27.9109980  77.6051110  16.3897340  28.2689930  79.6020280  29.0340490
  27.5438120  80.1949060  28.8369880  28.7965390  79.5943820  28.2353860
  12.0245200  77.7050960  15.4311830  12.8940050  77.9875760  15.7147750
  11.5335520  78.5186830  15.3160640  19.1880010  79.0924170  19.5520110
  19.6442790  79.9029420  19.7780300  18.8368220  78.7747310  20.3838600
  15.0891790  69.4361820  20.0242630  14.9606420  69.4279720  20.9727550
  14.2653810  69.7744910  19.6733640  12.0885720  71.1952940  29.4849330
  11.3744240  71.3949860  30.0901940  12.5080760  70.4192510  29.8564130
  14.0091710  79.5224430  17.5593890  13.4019660  80.2623330  17.5689190
  14.4841060  79.6123790  16.7332090  23.5824500  73.6875250  27.2350780
  23.9505320  72.8670460  27.5630350  22.7222700  73.7477140  27.6506430
  26.9486530  72.6432190  18.0438340  26.3199690  72.7477860  17.3296570
  26.4538450  72.8628970  18.8332220  18.9170560  74.9218140  19.4596220
  18.2086710  75.3904480  19.9009830  19.2015040  74.2640150  20.0941410
  20.5426490  76.3414840  27.4588750  21.0411740  76.8160660  28.1240600
  20.6849440  75.4178360  27.6658780  22.9485990  71.6468800  20.8992010
  22.8253770  71.6654930  19.9501520  23.8970550  71.6947740  21.0190410
  17.1205580  73.2303220  16.8346930  17.9696110  73.6673370  16.7687120
  16.7536850  73.5423480  17.6618990  27.7493350  72.5582800  28.3017140
  27.2466950  73.2988200  28.6410950  28.5650010  72.9466800  27.9853930
  26.0415360  77.8015980  21.7478500  25.1005500  77.8166210  21.9226190
  26.3559430  77.0151940  22.1938800  16.0197000  79.4835580  15.3082460
  16.7860270  79.3716940  15.8707890  16.0971690  78.7873550  14.6559230
  14.7143760  76.9160650  15.9915350  14.7947350  75.9688160  16.1032750
  15.6063510  77.2467530  16.0976010  12.2414560  78.7375570  31.2271520
  12.7453580  78.1582850  31.7987750  11.5021980  79.0215800  31.7647890
  14.2737640  76.8805160  32.1221590  14.3142980  76.5819030  33.0306820
  15.1283140  77.2812770  31.9629110  18.0516030  79.4800710  17.2825100
  18.4732450  79.3140580  18.1256490  18.1766870  78.6700940  16.7880240
  16.2143450  75.4597260  30.0896080  15.6839910  74.9688210  29.4619420
  16.8831520  75.8881460  29.5554010  20.5643670  78.5038320  14.5302200
  21.0849330  77.7887340  14.1643350  21.2112070  79.1424190  14.8302710
  25.1121510  79.9266720  29.8537270  25.5262530  80.0811800  30.7027690
  24.1772510  80.0521940  30.0163050  25.5843680  77.2662880  31.8576420
  26.1664450  76.5115200  31.7696900  25.7605450  77.7970320  31.0807900
  16.7015750  72.4259630  30.1693370  16.6072620  71.8080380  29.4444240
  16.1213140  73.1525920  29.9423280  19.4677190  70.9832870  27.2020760
  19.0194490  71.0057130  26.3566310  18.8342390  70.5851890  27.7991060
  22.2100640  77.6103380  29.2071040  22.3296850  77.0144520  29.9465880
  23.0694640  77.6473070  28.7872340  24.5488540  78.1640570  27.7833550
  24.0223760  78.6883190  27.1798690  24.8919880  78.7967960  28.4143280
  16.9474930  75.5533940  14.2283260  16.7463990  74.6901300  14.5896600
  16.7766980  75.4667300  13.2904860  18.9769410  74.1524730  30.4646860
  19.5669100  73.8440580  31.1524680  18.1589650  73.6804480  30.6206760
  23.7962840  73.7690540  30.6979880  23.1078360  73.1072080  30.6329870
  24.5168860  73.3228810  31.1428340  24.4263240  70.3642170  16.7570140
  24.7065530  69.5210070  17.1129560  23.6528970  70.5965280  17.2708890
  15.7457730  72.6534560  14.2161140  16.0483630  72.6601990  13.3080290
  16.4852320  72.3032420  14.7128800  18.9642660  71.5969180  15.2017340
  18.6164660  70.9193170  14.6219790  19.1655430  71.1358690  16.0160730
  28.8043960  79.6018900  17.3674050  29.5662870  80.1715550  17.4733740
  28.8198330  79.0346100  18.1382360  12.3048300  78.1256830  21.5981710
  11.6497140  77.8568470  20.9541410  13.1426250  78.0161310  21.1483690
  25.2538740  72.9198120  15.8200200  25.6723620  72.7329100  14.9796860
  24.9474800  72.0677170  16.1303130  28.7528470  77.8322260  19.5176000
  28.3772070  77.0650190  19.0857290  28.0231590  78.2144960  20.0050930
  13.3424230  78.5109400  26.1385050  13.7097270  78.4236800  27.0181070
  12.7735050  77.7475950  26.0391910  28.1428090  76.9793780  29.1515520
  27.9114180  76.7506530  28.2513470  28.4032640  77.8993330  29.1060410
  12.8940230  75.4218490  30.0443470  11.9996280  75.3885250  30.3837180
  13.4337780  75.6205280  30.8094720  26.5816160  72.2050210  31.9295220
  27.4586340  72.2133610  32.3129220  26.5937000  71.4681050  31.3187570
  11.5186380  75.3355760  17.5407040  10.6150460  75.5985960  17.3658700
  12.0027000  75.6066930  16.7607000  28.0279430  76.0579750  22.8183240
  28.5516910  75.5642400  22.1873410  28.6138850  76.1930110  23.5630810
  28.2069150  76.1419620  26.3402790  27.2571860  76.1083160  26.4547780
  28.3882160  77.0519730  26.1052560  14.0613590  74.3921300  15.4501420
  14.7705290  73.9704520  14.9648700  13.3453530  74.4596530  14.8184770
  13.7087750  70.4460630  14.4904070  14.4315880  70.9869570  14.8085290
  13.9812270  70.1724050  13.6145610  27.5179400  75.3153100  18.7575650
  28.0138520  75.0823970  19.5424530  27.3195470  74.4764940  18.3413290
  13.3979940  69.6966820  24.3926690  14.0456130  69.1464200  23.9521850
  13.8181780  69.9509970  25.2142500  28.9466560  73.9514050  21.2913330
  28.8365840  73.7970090  22.2295600  29.7074150  73.4234990  21.0488740
  27.2932280  69.8908180  27.7496330  27.9304500  70.5042320  28.1155520
  27.4407170  69.9268840  26.8045560  29.8356830  71.7821970  14.5319470
  30.7606140  71.6503150  14.3237760  29.8132620  71.8614790  15.4855920
  29.9095320  72.5532630  17.1576180  29.1146820  72.4877750  17.6869090
  30.1138600  73.4883270  17.1461530  13.1511940  69.8522490  27.1352010
  12.8026760  70.3086310  27.9010190  12.8199640  68.9579620  27.2174440
  20.6636760  71.0434370  30.6571430  20.6025650  71.6356200  31.4066840
  21.6037140  70.9360330  30.5121690  23.3011320  70.7004430  30.2963720
  23.9151730  71.0183720  29.6344800  23.8460880  70.2153020  30.9159580
  13.8232580  69.3798690  30.4102780  14.3715570  69.1986740  29.6468890
  13.8887890  68.5892800  30.9459090  24.0419360  69.2636570  26.6233010
  23.1679200  69.5971680  26.4205940  23.9330110  68.7909750  27.4484880
  24.9491340  71.4707440  28.0074730  24.6204700  70.6559200  27.6276460
  25.8973640  71.4277250  27.8840420  21.7894180  70.1806410  25.5625920
  21.0065970  70.6551910  25.8422680  21.4957110  69.2761240  25.4539100
  26.3415250  70.8829510  23.6075010  26.7823340  70.8274610  22.7596610
  26.0722840  71.7987520  23.6785190  28.2053820  70.5144750  21.6183830
  28.1442220  69.5705970  21.4714850  28.9845850  70.6224840  22.1637290
  13.1334590  70.4853890  18.0839640  13.8913950  70.5982770  17.5103670
  12.6711760  71.3223090  18.0383070  19.6748400  72.5993160  21.0741950
  18.8622910  72.2250050  20.7337830  20.1790040  71.8438240  21.3763140
  24.1773380  69.2635610  22.3125020  24.7802750  69.8355820  22.7873540
  23.4366370  69.8275050  22.0898920  27.3207980  69.6657170  17.5865300
  27.5158610  70.5640620  17.8532730  26.5337850  69.4344250  18.0798250
  15.5059740  71.0117940  16.6241610  16.0352500  70.2247740  16.4949560
  16.1388060  71.6909130  16.8577140  17.6997580  70.7493080  19.6787000
  17.0700320  70.0480390  19.8457130  17.1602720  71.5097210  19.4620160
  17.8253140  70.0277060  32.1139490  17.5437410  70.5310660  31.3500310
  18.2072840  69.2298810  31.7481620  24.4268600  69.4430640  32.6919960
  24.3134050  69.7625250  33.5871480  25.2438340  69.8443150  32.3957240
  23.3326750  77.4623110   3.0554700  23.2520800  76.5477720   2.7846410
  22.9191170  77.9590180   2.3494410  21.4644790  79.2402130   4.9363970
  20.6886890  78.7602570   5.2262540  22.1157720  78.5607780   4.7620130
  15.4810620  79.5521940   5.8139730  14.6495500  79.2970650   6.2136240
  16.0891600  79.6232710   6.5497650  11.8535580  77.1129480   5.4821820
  12.4251690  76.3451680   5.4825460  11.8537120  77.4118240   4.5728430
  13.0960450  72.5213840   7.2690750  12.9163290  71.6239590   7.5493510
  12.6940530  73.0685710   7.9437700  21.9358950  74.7229700   5.1703060
  22.3123770  73.8501580   5.0576730  21.8378460  75.0588400   4.2793500
  25.7183070  72.2180140   2.1031400  26.5392690  71.7276710   2.1456880
  25.7517150  72.8077800   2.8563240  13.7147120  75.0174340   5.8773090
  14.3957230  75.2812710   6.4960490  13.3995170  74.1775210   6.2111100
  17.9071690  76.0641700   4.9645680  18.4149910  76.5622670   5.6050700
  18.4384930  75.2876900   4.7885040  30.0082620  74.2346890   8.6675030
  29.3034790  74.6228600   8.1490140  30.2740540  74.9297180   9.2695960
  16.1907790  70.7040260   9.2309100  16.1926230  71.2212650   8.4255000
  15.3612100  70.2270440   9.2079030  25.9544550  74.1580520   4.8758940
  25.2500120  74.4465410   5.4562050  26.3156710  74.9680630   4.5158500
  15.8723120  72.4150220   7.2379550  16.2139930  73.2592270   6.9433420
  14.9338930  72.5633960   7.3544890  29.0231470  73.6035310   5.2668150
  28.0756380  73.6374290   5.3983580  29.3481460  74.4174260   5.6517510
  19.5551010  69.9032490   3.5624140  19.8625990  69.3479380   2.8459640
  18.6251710  70.0376950   3.3797130  28.4513610  78.9216840   7.2730450
  27.6232240  78.9909930   6.7980580  29.0464090  79.5071150   6.8046280
  25.4155620  75.7086160   8.2185320  25.0026800  76.5339870   8.4725310
  24.6831570  75.1231200   8.0261680  17.5488410  78.4946060   3.0803990
  17.1445410  77.7823310   2.5849890  17.6351530  78.1499300   3.9692030
  16.2617030  75.2689270   6.8603030  16.8131620  75.3784610   6.0856280
  16.7760540  75.6426870   7.5758260  15.9359760  78.7908630  10.4708370
  15.7967530  79.6631430  10.8395770  15.0541120  78.4481440  10.3256310
  28.9412190  74.7602740  12.1007440  28.3256460  75.2682410  11.5722900
  28.6208610  73.8601070  12.0433380  16.7156700  70.7326110   3.9634310
  16.2724850  71.5135650   3.6318830  17.2741690  71.0556000   4.6705250
  21.0026510  73.5994630   9.5669630  20.5405880  73.8077650  10.3789570
  20.6004620  72.7853980   9.2640300  26.0031020  74.8203580  10.6966290
  25.1524610  74.5209330  11.0175360  25.8432810  75.0645590   9.7850110
  23.0980730  76.3205330  12.7965080  23.4234140  75.4869080  12.4567310
  23.8861060  76.8433850  12.9443410  18.7532600  71.2773440   5.8223910
  19.0504930  72.1836270   5.7415930  19.3018160  70.7892220   5.2083480
  18.9470130  76.7545260  12.3575830  18.8513730  75.8139990  12.2076230
  19.7902110  76.9760330  11.9623900  14.0780670  73.1658930  10.5109610
  13.6844060  74.0134140  10.7182390  13.3899070  72.5285300  10.7018250
  20.6525720  73.2493900  13.5806350  19.9624040  73.0566100  14.2152440
  21.3958020  73.5328540  14.1130650  11.3797720  71.0887390   4.5439690
  11.0910770  71.6590250   5.2564670  12.1243480  70.6091840   4.9070920
  22.9288690  77.0892340   6.4160270  22.1969810  77.5979150   6.7650370
  22.5313030  76.2722320   6.1149050  19.3666080  73.7646540   4.8212760
  19.3702140  73.3236490   3.9717300  20.2617200  74.0863870   4.9284580
  15.2168460  73.6473030   3.7806970  14.8768510  74.1248260   4.5374020
  14.4545780  73.1938150   3.4208070  23.3914600  72.5426020   5.8283210
  23.4087340  72.9934670   6.6725060  23.1430180  71.6431660   6.0416650
  26.8185350  69.9558200  11.6669590  27.1431120  69.2247860  12.1927570
  26.8541860  69.6371840  10.7650580  19.6674050  77.8248320   6.5678170
  20.0344180  77.3506890   7.3139510  19.4779110  78.6989890   6.9086510
  12.5314540  72.5692010   2.6971640  12.2461460  72.2047680   3.5350260
  12.4693400  71.8372470   2.0834780  17.4573420  76.8656960   8.8862380
  17.1530490  77.7448940   9.1112740  18.4119880  76.9256750   8.9219820
  22.1261990  80.1392370  11.1624620  22.0599300  79.2188040  10.9082210
  21.4967130  80.2367810  11.8769260  13.5137150  77.7059700  10.0333740
  13.1552090  78.3713550  10.6207080  13.2191710  76.8743250  10.4046360
  16.7150270  78.1643940  12.9173290  16.4150410  78.3101120  12.0201110
  17.4861510  77.6049230  12.8246680  28.2689930  79.6020280  10.2597000
  27.5438120  80.1949060  10.0626390  28.7965390  79.5943820   9.4610370
  12.0885720  71.1952940  10.7105840  11.3744240  71.3949860  11.3158450
  12.5080760  70.4192510  11.0820640  23.5824500  73.6875250   8.4607290
  23.9505320  72.8670460   8.7886860  22.7222700  73.7477140   8.8762940
  20.5426490  76.3414840   8.6845260  21.0411740  76.8160660   9.3497110
  20.6849440  75.4178360   8.8915290  27.7493350  72.5582800   9.5273650
  27.2466950  73.2988200   9.8667460  28.5650010  72.9466800   9.2110440
  26.0415360  77.8015980   2.9735010  25.1005500  77.8166210   3.1482700
  26.3559430  77.0151940   3.4195310  12.2414560  78.7375570  12.4528030
  12.7453580  78.1582850  13.0244260  11.5021980  79.0215800  12.9904400
  14.2737640  76.8805160  13.3478100  14.3142980  76.5819030  14.2563330
  15.1283140  77.2812770  13.1885620  16.2143450  75.4597260  11.3152590
  15.6839910  74.9688210  10.6875930  16.8831520  75.8881460  10.7810520
  25.1121510  79.9266720  11.0793780  25.5262530  80.0811800  11.9284200
  24.1772510  80.0521940  11.2419560  25.5843680  77.2662880  13.0832930
  26.1664450  76.5115200  12.9953410  25.7605450  77.7970320  12.3064410
  16.7015750  72.4259630  11.3949880  16.6072620  71.8080380  10.6700750
  16.1213140  73.1525920  11.1679790  19.4677190  70.9832870   8.4277270
  19.0194490  71.0057130   7.5822820  18.8342390  70.5851890   9.0247570
  22.2100640  77.6103380  10.4327550  22.3296850  77.0144520  11.1722390
  23.0694640  77.6473070  10.0128850  24.5488540  78.1640570   9.0090060
  24.0223760  78.6883190   8.4055200  24.8919880  78.7967960   9.6399790
  18.9769410  74.1524730  11.6903370  19.5669100  73.8440580  12.3781190
  18.1589650  73.6804480  11.8463270  23.7962840  73.7690540  11.9236390
  23.1078360  73.1072080  11.8586380  24.5168860  73.3228810  12.3684850
  12.3048300  78.1256830   2.8238220  11.6497140  77.8568470   2.1797920
  13.1426250  78.0161310   2.3740200  13.3424230  78.5109400   7.3641560
  13.7097270  78.4236800   8.2437580  12.7735050  77.7475950   7.2648420
  28.1428090  76.9793780  10.3772030  27.9114180  76.7506530   9.4769980
  28.4032640  77.8993330  10.3316920  12.8940230  75.4218490  11.2699980
  11.9996280  75.3885250  11.6093690  13.4337780  75.6205280  12.0351230
  26.5816160  72.2050210  13.1551730  27.4586340  72.2133610  13.5385730
  26.5937000  71.4681050  12.5444080  28.0279430  76.0579750   4.0439750
  28.5516910  75.5642400   3.4129920  28.6138850  76.1930110   4.7887320
  28.2069150  76.1419620   7.5659300  27.2571860  76.1083160   7.6804290
  28.3882160  77.0519730   7.3309070  13.3979940  69.6966820   5.6183200
  14.0456130  69.1464200   5.1778360  13.8181780  69.9509970   6.4399010
  28.9466560  73.9514050   2.5169840  28.8365840  73.7970090   3.4552110
  29.7074150  73.4234990   2.2745250  27.2932280  69.8908180   8.9752840
  27.9304500  70.5042320   9.3412030  27.4407170  69.9268840   8.0302070
  13.1511940  69.8522490   8.3608520  12.8026760  70.3086310   9.1266700
  12.8199640  68.9579620   8.4430950  20.6636760  71.0434370  11.8827940
  20.6025650  71.6356200  12.6323350  21.6037140  70.9360330  11.7378200
  13.8232580  69.3798690  11.6359290  14.3715570  69.1986740  10.8725400
  13.8887890  68.5892800  12.1715600  24.0419360  69.2636570   7.8489520
  23.1679200  69.5971680   7.6462450  23.9330110  68.7909750   8.6741390
  24.9491340  71.4707440   9.2331240  24.6204700  70.6559200   8.8532970
  25.8973640  71.4277250   9.1096930  21.7894180  70.1806410   6.7882430
  21.0065970  70.6551910   7.0679190  21.4957110  69.2761240   6.6795610
  26.3415250  70.8829510   4.8331520  26.7823340  70.8274610   3.9853120
  26.0722840  71.7987520   4.9041700  28.2053820  70.5144750   2.8440340
  28.1442220  69.5705970   2.6971360  28.9845850  70.6224840   3.3893800
  19.6748400  72.5993160   2.2998460  18.8622910  72.2250050   1.9594340
  20.1790040  71.8438240   2.6019650  24.1773380  69.2635610   3.5381530
  24.7802750  69.8355820   4.0130050  23.4366370  69.8275050   3.3155430
  17.8253140  70.0277060  13.3396000  17.5437410  70.5310660  12.5756820
  18.2072840  69.2298810  12.9738130  24.4268600  69.4430640  13.9176470
  24.3134050  69.7625250  14.8127990  25.2438340  69.8443150  13.6213750
  23.3326750  58.6879620  96.9272150  23.2520800  57.7734230  96.6563860
  22.9191170  59.1846690  96.2211860  21.4644790  60.4658640  98.8081420
  20.6886890  59.9859080  99.0979990  22.1157720  59.7864290  98.6337580
  15.4810620  60.7778450  99.6857180  14.6495500  60.5227160 100.0853690
  16.0891600  60.8489220 100.4215100  25.4852220  64.8718830  97.5880550
  25.0233750  64.1006070  97.9167720  26.2977770  64.8984900  98.0933000
  15.4611880  64.8118540  99.8815200  15.7639920  63.9216280  99.7025420
  16.2055470  65.3688760  99.6537450  13.8902570  55.7380340  93.4699570
  13.0019270  56.0796310  93.3679450  14.1743760  55.5380660  92.5780400
  11.8535580  58.3385990  99.3539270  12.4251690  57.5708190  99.3542910
  11.8537120  58.6374750  98.4445880  21.7115530  67.1576840  97.2084540
  21.0926970  67.6134340  96.6378980  22.5667310  67.3128300  96.8074240
  20.9053780  63.1415830  98.8151580  20.8362060  62.2005770  98.6540710
  21.6673640  63.2317240  99.3874150  21.9358950  55.9486210  99.0420510
  22.3123770  55.0758090  98.9294180  21.8378460  56.2844910  98.1510950
  16.0663960  54.3211840  94.5037950  16.1730710  55.2215570  94.8106710
  15.1556320  54.2729810  94.2132600  25.7183070  53.4436650  95.9748850
  26.5392690  52.9533220  96.0174330  25.7517150  54.0334310  96.7280690
  13.7147120  56.2430850  99.7490540  14.3957230  56.5069220 100.3677940
  13.3995170  55.4031720 100.0828550  17.9071690  57.2898210  98.8363130
  18.4149910  57.7879180  99.4768150  18.4384930  56.5133410  98.6602490
  22.5778880  62.0416080  94.6016450  21.9596150  62.5065530  94.0379170
  23.0902130  62.7343560  95.0185960  25.9544550  55.3837030  98.7476390
  25.2500120  55.6721920  99.3279500  26.3156710  56.1937140  98.3875950
  15.8723120  53.6406730 101.1097000  16.2139930  54.4848780 100.8150870
  14.9338930  53.7890470 101.2262340  11.9462080  62.7272610  91.9756080
  11.5690060  63.2159710  91.2440980  12.2035150  63.3997890  92.6062610
  27.5707330  65.0012160 101.0103870  26.8870850  65.6711270 101.0020540
  28.1101620  65.1992810 100.2448730  29.0231470  54.8291820  99.1385600
  28.0756380  54.8630800  99.2701030  29.3481460  55.6430770  99.5234960
  19.5551010  51.1289000  97.4341590  19.8625990  50.5735890  96.7177090
  18.6251710  51.2633460  97.2514580  25.1066070  66.8456290  99.7249050
  25.1193230  66.4418580  98.8571310  24.5541290  67.6203580  99.6210480
  26.4011490  63.5672510  94.8139220  26.2907820  62.6246840  94.9388640
  26.3979740  63.9288150  95.7001980  24.5051510  61.7486130 101.0531660
  24.9220300  61.5346240 100.2185120  25.2291330  62.0058920 101.6240280
  21.9431770  59.1937830  94.1701710  21.0161050  59.1275210  94.3990180
  22.0956590  60.1317960  94.0556950  21.9300850  55.4654830  91.1668870
  20.9904520  55.6268790  91.2521330  22.2484110  56.1840510  90.6204860
  28.4513610  60.1473350 101.1447900  27.6232240  60.2166440 100.6698030
  29.0464090  60.7327660 100.6763730  25.9729060  60.7558130  94.6736960
  25.3541480  60.4177680  94.0263260  25.9553510  60.1117890  95.3816150
  17.5488410  59.7202570  96.9521440  17.1445410  59.0079820  96.4567340
  17.6351530  59.3755810  97.8409480  18.0170110  63.4070130  99.1160650
  17.7198400  62.8015600  98.4368430  18.9669930  63.4447440  99.0050010
  16.2617030  56.4945780 100.7320480  16.8131620  56.6041120  99.9573730
  16.7760540  56.8683380 101.4475710  24.1493760  59.9944940  91.6809710
  24.5887040  59.1567370  91.5347530  24.8622180  60.6274340  91.7673850
  22.2589140  64.9341010  95.6490950  22.6985050  65.6765340  95.2346340
  22.1976030  65.1767580  96.5729910  27.7310900  51.2487750  89.9950750
  27.4183560  51.3414580  90.8949820  28.4923370  51.8268780  89.9448180
  14.2493040  58.6147550  94.4528090  14.1290640  59.3409640  93.8409360
  13.9393930  57.8450460  93.9756000  11.8878410  61.7862690 100.2596730
  11.9658830  61.9211460  99.3152450  12.5020090  61.0778580 100.4524850
  13.1326040  63.4862880  96.6702910  12.7254120  63.6277470  95.8156510
  14.0239050  63.2023040  96.4674120  24.9259320  67.9210130  93.0053960
  24.7660460  67.6313070  93.9035790  24.7606030  67.1450260  92.4699190
  17.4047700  67.7008660  94.7825580  17.2290180  66.7844200  94.5693380
  16.5503440  68.0595950  95.0223380  24.6285450  65.4297690  91.5651960
  23.9350610  65.4274980  90.9054240  25.3708310  65.0057010  91.1346130
  24.1935380  67.0560400  95.6400450  24.6492330  66.2749780  95.9539070
  24.5327900  67.7667220  96.1841630  16.7156700  51.9582620  97.8351760
  16.2724850  52.7392160  97.5036280  17.2741690  52.2812510  98.5422700
  19.8315520  51.5793320  92.7157590  19.2069700  51.5753190  93.4410900
  19.7445640  50.7124280  92.3193560  18.7532600  52.5029950  99.6941360
  19.0504930  53.4092780  99.6133380  19.3018160  52.0148730  99.0800930
  16.5070920  57.0816190  95.5633010  16.2811840  56.8653360  96.4679630
  15.7263450  57.5144650  95.2178980  23.7368680  57.0879560  94.1623660
  23.1377570  57.8115360  93.9787280  24.2848290  57.0256340  93.3800110
  22.3433550  55.7243100  96.1926940  22.7363120  56.0415300  95.3795630
  22.7050400  54.8454980  96.3071460  11.3797720  52.3143900  98.4157140
  11.0910770  52.8846760  99.1282120  12.1243480  51.8348350  98.7788370
  11.5667950  56.2564020  89.6259860  11.4842620  57.1994780  89.7674850
  11.2151010  56.1138930  88.7472210  22.9288690  58.3148850 100.2877720
  22.1969810  58.8235660 100.6367820  22.5313030  57.4978830  99.9866500
  19.3666080  54.9903050  98.6930210  19.3702140  54.5493000  97.8434750
  20.2617200  55.3120380  98.8002030  15.2168460  54.8729540  97.6524420
  14.8768510  55.3504770  98.4091470  14.4545780  54.4194660  97.2925520
  19.4286230  55.9915130  91.6836970  19.5499050  55.9501610  92.6322790
  19.0434740  56.8539280  91.5283700  23.3914600  53.7682530  99.7000660
  23.4087340  54.2191180 100.5442510  23.1430180  52.8688170  99.9134100
  18.4407730  58.3016270  91.0820270  17.8724630  57.8534520  90.4556180
  19.1496730  58.6609050  90.5485420  19.6674050  59.0504830 100.4395620
  20.0344180  58.5763400 101.1856960  19.4779110  59.9246400 100.7803960
  12.5314540  53.7948520  96.5689090  12.2461460  53.4304190  97.4067710
  12.4693400  53.0628980  95.9552230  15.9855210  62.2974460  93.3546680
  15.2117470  61.7572080  93.1945400  16.7149840  61.7781070  93.0164440
  26.7443190  61.2939820  99.1473070  27.4642310  61.7895110  98.7569180
  26.5425010  60.6157710  98.5026940  22.2053130  52.6877780  93.2902460
  21.3917740  52.1890950  93.2147770  22.0115080  53.5276030  92.8738810
  24.9201520  57.0597430  91.5864620  25.8081140  57.3714660  91.4115960
  24.8906610  56.1869680  91.1945200  16.0292610  61.9654840  96.9925490
  16.5471280  61.1623100  96.9382380  15.5776630  61.9033980  97.8342320
  20.9162110  63.2321120  92.2652790  21.2577810  63.9763350  91.7696110
  20.0874820  63.5452240  92.6277620  27.1915790  58.3709270  91.0544480
  27.1079510  58.8023490  90.2040920  27.9109980  58.8307620  91.4871300
  28.2203040  65.2251530  93.7826610  27.5779200  64.5707150  94.0570330
  27.8333700  65.6306620  93.0067280  23.7989520  62.5536960  97.6298300
  24.1513340  61.9565090  96.9699670  22.9151850  62.2281190  97.8006550
  19.8852800  63.3134650  95.0368710  20.5723930  63.8603860  95.4176300
  19.0985220  63.8575380  95.0718320  12.0245200  58.9307470  90.5285790
  12.8940050  59.2132270  90.8121710  11.5335520  59.7443340  90.4134600
  19.1880010  60.3180680  94.6494070  19.6442790  61.1285930  94.8754260
  18.8368220  60.0003820  95.4812560  15.0891790  50.6618330  95.1216590
  14.9606420  50.6536230  96.0701510  14.2653810  51.0001420  94.7707600
  22.7644700  63.8319370 100.5963820  23.4066930  63.1312530 100.7095990
  23.2894050  64.6117810 100.4160710  26.6100420  64.1167990  90.3202960
  26.3838000  63.3998430  90.9127600  26.2196620  63.8680430  89.4824710
  12.3916450  68.1434850  91.0947420  12.7514090  68.7424190  90.4404690
  12.2508790  68.6894740  91.8682450  26.1916670  62.0339930  91.9817120
  25.9038370  62.4952620  92.7695000  26.9868840  61.5737700  92.2501340
  18.4085070  65.5266050  91.9121090  18.3995170  66.2595740  91.2965600
  17.4883430  65.2797630  92.0048050  14.0091710  60.7480940  92.6567850
  13.4019660  61.4879840  92.6663150  14.4841060  60.8380300  91.8306050
  26.9486530  53.8688700  93.1412300  26.3199690  53.9734370  92.4270530
  26.4538450  54.0885480  93.9306180  21.3944670  65.5894290  90.5746280
  21.4956650  65.3858280  89.6448260  20.4946410  65.3352570  90.7794060
  18.9170560  56.1474650  94.5570180  18.2086710  56.6160990  94.9983790
  19.2015040  55.4896660  95.1915370  22.9485990  52.8725310  95.9965970
  22.8253770  52.8911440  95.0475480  23.8970550  52.9204250  96.1164370
  20.0362780  68.1080610  95.2693950  20.2904280  68.0702000  94.3473320
  19.0875260  67.9813940  95.2622200  17.1205580  54.4559730  91.9320890
  17.9696110  54.8929880  91.8661080  16.7536850  54.7679990  92.7592950
  26.0415360  59.0272490  96.8452460  25.1005500  59.0422720  97.0200150
  26.3559430  58.2408450  97.2912760  16.0197000  60.7092090  90.4056420
  16.7860270  60.5973450  90.9681850  16.0971690  60.0130060  89.7533190
  14.7143760  58.1417160  91.0889310  14.7947350  57.1944670  91.2006710
  15.6063510  58.4724040  91.1949970  28.0440940  66.1981340  98.5206720
  28.1688360  67.0212510  98.9930530  28.9106500  65.9872070  98.1730870
  15.5158470  68.2912550  98.1923850  16.2520950  67.7428010  98.4632420
  15.8999390  69.1568560  98.0529840  12.4003950  64.3586120  94.0665360
  11.4743730  64.6007260  94.0570770  12.8660380  65.1860380  93.9450110
  18.6260780  67.4642860  90.0149420  19.4189390  67.7531690  89.5631210
  18.1065130  67.0335030  89.3361900  27.6790950  66.6912990  91.4386160
  27.3932460  66.2778130  90.6240340  27.4810500  67.6200700  91.3186680
  19.1438180  62.6846270  89.8791770  19.0388820  62.0698620  90.6053150
  18.9762400  62.1612160  89.0954780  22.3840910  61.7466300  90.4833760
  21.8351010  62.1935600  91.1276500  23.0060170  61.2415550  91.0071430
  18.0516030  60.7057220  92.3799060  18.4732450  60.5397090  93.2230450
  18.1766870  59.8957450  91.8854200  20.5643670  59.7294830  89.6276160
  21.0849330  59.0143850  89.2617310  21.2112070  60.3680700  89.9276670
  16.9474930  56.7790450  89.3257220  16.7463990  55.9157810  89.6870560
  16.7766980  56.6923810  88.3878820  24.4263240  51.5898680  91.8544100
  24.7065530  50.7466580  92.2103520  23.6528970  51.8221790  92.3682850
  15.7457730  53.8791070  89.3135100  16.0483630  53.8858500  88.4054250
  16.4852320  53.5288930  89.8102760  18.9642660  52.8225690  90.2991300
  18.6164660  52.1449680  89.7193750  19.1655430  52.3615200  91.1134690
  21.1291700  67.8106440  91.9177900  22.0242490  68.1491410  91.9396660
  21.1609330  67.0885850  91.2902180  14.7687860  63.1833490  90.1464900
  15.2062730  63.7263160  90.8022480  15.2535590  62.3580440  90.1561240
  11.9833660  65.9722520  97.5985160  12.3136670  65.1043580  97.3663800
  12.4124660  66.1781040  98.4290120  16.5795580  64.3031530  95.2587130
  16.2791120  64.1796500  96.1591040  16.4733070  63.4440120  94.8502860
  12.4723870  66.8393110 100.3366790  12.0354860  67.0193910 101.1690940
  13.0401550  67.5967730 100.1948510  29.3487500  64.0827930  89.9613810
  28.5180460  64.1504580  90.4321040  29.5259330  64.9732050  89.6580670
  28.8043960  60.8275410  92.4648010  29.5662870  61.3972060  92.5707700
  28.8198330  60.2602610  93.2356320  12.3048300  59.3513340  96.6955670
  11.6497140  59.0824980  96.0515370  13.1426250  59.2417820  96.2457650
  29.8103930  61.6825510  97.3089940  30.1812760  60.8992830  96.9025910
  30.4505860  62.3714610  97.1307240  28.8563130  61.1209780  89.6220530
  29.1311970  62.0288660  89.4939750  28.6673870  61.0572310  90.5582520
  25.2538740  54.1454630  90.9174160  25.6723620  53.9585610  90.0770820
  24.9474800  53.2933680  91.2277090  28.7528470  59.0578770  94.6149960
  28.3772070  58.2906700  94.1831250  28.0231590  59.4401470  95.1024890
  11.5186380  56.5612270  92.6381000  10.6150460  56.8242470  92.4632660
  12.0027000  56.8323440  91.8580960  28.0279430  57.2836260  97.9157200
  28.5516910  56.7898910  97.2847370  28.6138850  57.4186620  98.6604770
  28.2069150  57.3676130 101.4376750  27.2571860  57.3339670 101.5521740
  28.3882160  58.2776240 101.2026520  14.0613590  55.6177810  90.5475380
  14.7705290  55.1961030  90.0622660  13.3453530  55.6853040  89.9158730
  13.7087750  51.6717140  89.5878030  14.4315880  52.2126080  89.9059250
  13.9812270  51.3980560  88.7119570  27.5179400  56.5409610  93.8549610
  28.0138520  56.3080480  94.6398490  27.3195470  55.7021450  93.4387250
  13.3979940  50.9223330  99.4900650  14.0456130  50.3720710  99.0495810
  13.8181780  51.1766480 100.3116460  28.9466560  55.1770560  96.3887290
  28.8365840  55.0226600  97.3269560  29.7074150  54.6491500  96.1462700
  29.8356830  53.0078480  89.6293430  30.7606140  52.8759660  89.4211720
  29.8132620  53.0871300  90.5829880  29.9095320  53.7789140  92.2550140
  29.1146820  53.7134260  92.7843050  30.1138600  54.7139780  92.2435490
  26.8513740  67.8180690  96.2488530  27.4472810  67.4965260  95.5722950
  27.1091890  67.3452510  97.0401800  27.4025950  68.4675990 100.0786260
  26.9428920  69.2191800  99.7044280  26.7738410  67.7482460 100.0201060
  17.8321670  66.7764230  99.2534390  18.3486690  66.1651590  98.7282650
  18.4819050  67.2793010  99.7445400  20.5717170  67.6672720 100.0803370
  20.8594980  67.4127020  99.2036380  21.0840390  67.1150080 100.6708940
  21.7894180  51.4062920 100.6599880  21.0065970  51.8808420 100.9396640
  21.4957110  50.5017750 100.5513060  26.3415250  52.1086020  98.7048970
  26.7823340  52.0531120  97.8570570  26.0722840  53.0244030  98.7759150
  28.2053820  51.7401260  96.7157790  28.1442220  50.7962480  96.5688810
  28.9845850  51.8481350  97.2611250  12.5106570  67.8793620  95.6781740
  12.3428610  67.2464300  96.3763630  11.6441080  68.0853020  95.3275930
  13.1334590  51.7110400  93.1813600  13.8913950  51.8239280  92.6077630
  12.6711760  52.5479600  93.1357030  19.6748400  53.8249670  96.1715910
  18.8622910  53.4506560  95.8311790  20.1790040  53.0694750  96.4737100
  24.1773380  50.4892120  97.4098980  24.7802750  51.0612330  97.8847500
  23.4366370  51.0531560  97.1872880  27.3207980  50.8913680  92.6839260
  27.5158610  51.7897130  92.9506690  26.5337850  50.6600760  93.1772210
  14.1169270  66.5726850  93.1231880  13.5916890  66.9534880  92.4193840
  14.0413850  67.1977620  93.8441590  15.5059740  52.2374450  91.7215570
  16.0352500  51.4504250  91.5923520  16.1388060  52.9165640  91.9551100
  17.6997580  51.9749590  94.7760960  17.0700320  51.2736900  94.9431090
  17.1602720  52.7353720  94.5594120  28.8734590  68.1314390  94.4445820
  29.0486780  67.4452130  93.8006740  28.1756160  68.6561440  94.0522490
  16.7162240  68.5209230  91.9981130  17.4481060  68.2368510  91.4505020
  16.9755910  68.2822510  92.8880510  15.8777030  64.6373960  92.0027460
  15.2485910  65.1059060  92.5513290  15.9924860  63.7923180  92.4373650
  23.3326750  58.6879620  78.1528660  23.2520800  57.7734230  77.8820370
  22.9191170  59.1846690  77.4468370  21.4644790  60.4658640  80.0337930
  20.6886890  59.9859080  80.3236500  22.1157720  59.7864290  79.8594090
  15.4810620  60.7778450  80.9113690  14.6495500  60.5227160  81.3110200
  16.0891600  60.8489220  81.6471610  25.4852220  64.8718830  78.8137060
  25.0233750  64.1006070  79.1424230  26.2977770  64.8984900  79.3189510
  15.4611880  64.8118540  81.1071710  15.7639920  63.9216280  80.9281930
  16.2055470  65.3688760  80.8793960  13.8902570  55.7380340  74.6956080
  13.0019270  56.0796310  74.5935960  14.1743760  55.5380660  73.8036910
  11.8535580  58.3385990  80.5795780  12.4251690  57.5708190  80.5799420
  11.8537120  58.6374750  79.6702390  21.7115530  67.1576840  78.4341050
  21.0926970  67.6134340  77.8635490  22.5667310  67.3128300  78.0330750
  20.9053780  63.1415830  80.0408090  20.8362060  62.2005770  79.8797220
  21.6673640  63.2317240  80.6130660  13.0960450  53.7470350  82.3664710
  12.9163290  52.8496100  82.6467470  12.6940530  54.2942220  83.0411660
  21.9358950  55.9486210  80.2677020  22.3123770  55.0758090  80.1550690
  21.8378460  56.2844910  79.3767460  16.0663960  54.3211840  75.7294460
  16.1730710  55.2215570  76.0363220  15.1556320  54.2729810  75.4389110
  13.7147120  56.2430850  80.9747050  14.3957230  56.5069220  81.5934450
  13.3995170  55.4031720  81.3085060  17.9071690  57.2898210  80.0619640
  18.4149910  57.7879180  80.7024660  18.4384930  56.5133410  79.8859000
  30.0082620  55.4603400  83.7648990  29.3034790  55.8485110  83.2464100
  30.2740540  56.1553690  84.3669920  16.1907790  51.9296770  84.3283060
  16.1926230  52.4469160  83.5228960  15.3612100  51.4526950  84.3052990
  22.5778880  62.0416080  75.8272960  21.9596150  62.5065530  75.2635680
  23.0902130  62.7343560  76.2442470  17.4410640  61.5691950  82.5056560
  17.1080020  62.1960870  83.1477630  17.6177320  62.0953830  81.7258230
  25.9544550  55.3837030  79.9732900  25.2500120  55.6721920  80.5536010
  26.3156710  56.1937140  79.6132460  15.8723120  53.6406730  82.3353510
  16.2139930  54.4848780  82.0407380  14.9338930  53.7890470  82.4518850
  16.6529740  63.5372750  84.3205740  17.2703740  64.2123830  84.0390190
  15.7922860  63.9460730  84.2293240  11.9462080  62.7272610  73.2012590
  11.5690060  63.2159710  72.4697490  12.2035150  63.3997890  73.8319120
  27.5707330  65.0012160  82.2360380  26.8870850  65.6711270  82.2277050
  28.1101620  65.1992810  81.4705240  29.0231470  54.8291820  80.3642110
  28.0756380  54.8630800  80.4957540  29.3481460  55.6430770  80.7491470
  19.5551010  51.1289000  78.6598100  19.8625990  50.5735890  77.9433600
  18.6251710  51.2633460  78.4771090  25.1066070  66.8456290  80.9505560
  25.1193230  66.4418580  80.0827820  24.5541290  67.6203580  80.8466990
  26.4011490  63.5672510  76.0395730  26.2907820  62.6246840  76.1645150
  26.3979740  63.9288150  76.9258490  24.5051510  61.7486130  82.2788170
  24.9220300  61.5346240  81.4441630  25.2291330  62.0058920  82.8496790
  21.9431770  59.1937830  75.3958220  21.0161050  59.1275210  75.6246690
  22.0956590  60.1317960  75.2813460  21.9300850  55.4654830  72.3925380
  20.9904520  55.6268790  72.4777840  22.2484110  56.1840510  71.8461370
  28.4513610  60.1473350  82.3704410  27.6232240  60.2166440  81.8954540
  29.0464090  60.7327660  81.9020240  25.9729060  60.7558130  75.8993470
  25.3541480  60.4177680  75.2519770  25.9553510  60.1117890  76.6072660
  25.4155620  56.9342670  83.3159280  25.0026800  57.7596380  83.5699270
  24.6831570  56.3487710  83.1235640  17.5488410  59.7202570  78.1777950
  17.1445410  59.0079820  77.6823850  17.6351530  59.3755810  79.0665990
  18.0170110  63.4070130  80.3417160  17.7198400  62.8015600  79.6624940
  18.9669930  63.4447440  80.2306520  16.2617030  56.4945780  81.9576990
  16.8131620  56.6041120  81.1830240  16.7760540  56.8683380  82.6732220
  26.1055720  66.9802000  84.0040260  25.6286280  67.7874190  83.8112870
  25.4217510  66.3280330  84.1566470  17.1088540  63.1451820  86.9924960
  16.2117070  63.3691790  87.2398360  17.1341410  63.2686760  86.0436360
  24.1493760  59.9944940  72.9066220  24.5887040  59.1567370  72.7604040
  24.8622180  60.6274340  72.9930360  15.9359760  60.0165140  85.5682330
  15.7967530  60.8887940  85.9369730  15.0541120  59.6737950  85.4230270
  22.2589140  64.9341010  76.8747460  22.6985050  65.6765340  76.4602850
  22.1976030  65.1767580  77.7986420  17.7340110  65.9586840  87.7767480
  17.7055540  66.3629790  86.9095910  17.5705080  65.0297200  87.6139080
  14.2493040  58.6147550  75.6784600  14.1290640  59.3409640  75.0665870
  13.9393930  57.8450460  75.2012510  29.6854930  66.7413940  89.0731650
  30.1614650  67.2196830  89.7520730  30.3062090  66.6731430  88.3477150
  11.8878410  61.7862690  81.4853240  11.9658830  61.9211460  80.5408960
  12.5020090  61.0778580  81.6781360  13.1326040  63.4862880  77.8959420
  12.7254120  63.6277470  77.0413020  14.0239050  63.2023040  77.6930630
  29.0888180  63.9326790  86.2331660  29.2151240  63.6938670  85.3148840
  29.1309560  63.1011330  86.7053740  22.9504920  67.6354790  84.8026470
  23.4649590  67.5462800  85.6048900  22.1074000  67.9814490  85.0954380
  24.9259320  67.9210130  74.2310470  24.7660460  67.6313070  75.1292300
  24.7606030  67.1450260  73.6955700  17.4047700  67.7008660  76.0082090
  17.2290180  66.7844200  75.7949890  16.5503440  68.0595950  76.2479890
  24.6285450  65.4297690  72.7908470  23.9350610  65.4274980  72.1310750
  25.3708310  65.0057010  72.3602640  24.1935380  67.0560400  76.8656960
  24.6492330  66.2749780  77.1795580  24.5327900  67.7667220  77.4098140
  28.9412190  55.9859250  87.1981400  28.3256460  56.4938920  86.6696860
  28.6208610  55.0857580  87.1407340  11.9437930  62.8276860  84.0247700
  12.1068970  62.3582220  83.2067070  12.4090380  62.3200420  84.6896540
  16.7156700  51.9582620  79.0608270  16.2724850  52.7392160  78.7292790
  17.2741690  52.2812510  79.7679210  21.0026510  54.8251140  84.6643590
  20.5405880  55.0334160  85.4763530  20.6004620  54.0110490  84.3614260
  26.0031020  56.0460090  85.7940250  25.1524610  55.7465840  86.1149320
  25.8432810  56.2902100  84.8824070  23.0980730  57.5461840  87.8939040
  23.4234140  56.7125590  87.5541270  23.8861060  58.0690360  88.0417370
  19.8315520  51.5793320  73.9414100  19.2069700  51.5753190  74.6667410
  19.7445640  50.7124280  73.5450070  18.7532600  52.5029950  80.9197870
  19.0504930  53.4092780  80.8389890  19.3018160  52.0148730  80.3057440
  16.5070920  57.0816190  76.7889520  16.2811840  56.8653360  77.6936140
  15.7263450  57.5144650  76.4435490  23.7368680  57.0879560  75.3880170
  23.1377570  57.8115360  75.2043790  24.2848290  57.0256340  74.6056620
  18.9470130  57.9801770  87.4549790  18.8513730  57.0396500  87.3050190
  19.7902110  58.2016840  87.0597860  22.3433550  55.7243100  77.4183450
  22.7363120  56.0415300  76.6052140  22.7050400  54.8454980  77.5327970
  14.0780670  54.3915440  85.6083570  13.6844060  55.2390650  85.8156350
  13.3899070  53.7541810  85.7992210  20.6525720  54.4750410  88.6780310
  19.9624040  54.2822610  89.3126400  21.3958020  54.7585050  89.2104610
  11.3797720  52.3143900  79.6413650  11.0910770  52.8846760  80.3538630
  12.1243480  51.8348350  80.0044880  11.5667950  56.2564020  70.8516370
  11.4842620  57.1994780  70.9931360  11.2151010  56.1138930  69.9728720
  22.9288690  58.3148850  81.5134230  22.1969810  58.8235660  81.8624330
  22.5313030  57.4978830  81.2123010  19.3666080  54.9903050  79.9186720
  19.3702140  54.5493000  79.0691260  20.2617200  55.3120380  80.0258540
  15.2168460  54.8729540  78.8780930  14.8768510  55.3504770  79.6347980
  14.4545780  54.4194660  78.5182030  19.4286230  55.9915130  72.9093480
  19.5499050  55.9501610  73.8579300  19.0434740  56.8539280  72.7540210
  23.3914600  53.7682530  80.9257170  23.4087340  54.2191180  81.7699020
  23.1430180  52.8688170  81.1390610  18.4407730  58.3016270  72.3076780
  17.8724630  57.8534520  71.6812690  19.1496730  58.6609050  71.7741930
  26.8185350  51.1814710  86.7643550  27.1431120  50.4504370  87.2901530
  26.8541860  50.8628350  85.8624540  13.5176910  62.2028290  86.1843510
  13.1331700  61.5621960  86.7826470  13.8289100  62.9064410  86.7538240
  19.6674050  59.0504830  81.6652130  20.0344180  58.5763400  82.4113470
  19.4779110  59.9246400  82.0060470  12.5314540  53.7948520  77.7945600
  12.2461460  53.4304190  78.6324220  12.4693400  53.0628980  77.1808740
  17.4573420  58.0913470  83.9836340  17.1530490  58.9705450  84.2086700
  18.4119880  58.1513260  84.0193780  15.9855210  62.2974460  74.5803190
  15.2117470  61.7572080  74.4201910  16.7149840  61.7781070  74.2420950
  26.7443190  61.2939820  80.3729580  27.4642310  61.7895110  79.9825690
  26.5425010  60.6157710  79.7283450  22.1261990  61.3648880  86.2598580
  22.0599300  60.4444550  86.0056170  21.4967130  61.4624320  86.9743220
  16.0292610  61.9654840  78.2182000  16.5471280  61.1623100  78.1638890
  15.5776630  61.9033980  79.0598830  20.9162110  63.2321120  73.4909300
  21.2577810  63.9763350  72.9952620  20.0874820  63.5452240  73.8534130
  13.5137150  58.9316210  85.1307700  13.1552090  59.5970060  85.7181040
  13.2191710  58.0999760  85.5020320  16.7150270  59.3900450  88.0147250
  16.4150410  59.5357630  87.1175070  17.4861510  58.8305740  87.9220640
  22.0578720  64.1869450  86.0102380  22.0723260  63.2550410  85.7921290
  21.3503820  64.2729210  86.6492150  27.1915790  58.3709270  72.2800990
  27.1079510  58.8023490  71.4297430  27.9109980  58.8307620  72.7127810
  28.2689930  60.8276790  85.3570960  27.5438120  61.4205570  85.1600350
  28.7965390  60.8200330  84.5584330  28.2203040  65.2251530  75.0083120
  27.5779200  64.5707150  75.2826840  27.8333700  65.6306620  74.2323790
  23.7989520  62.5536960  78.8554810  24.1513340  61.9565090  78.1956180
  22.9151850  62.2281190  79.0263060  19.8852800  63.3134650  76.2625220
  20.5723930  63.8603860  76.6432810  19.0985220  63.8575380  76.2974830
  12.0245200  58.9307470  71.7542300  12.8940050  59.2132270  72.0378220
  11.5335520  59.7443340  71.6391110  19.1880010  60.3180680  75.8750580
  19.6442790  61.1285930  76.1010770  18.8368220  60.0003820  76.7069070
  21.4912620  65.8287020  83.1042880  22.1354840  66.0346400  83.7816300
  21.8542060  65.0675420  82.6513730  15.0891790  50.6618330  76.3473100
  14.9606420  50.6536230  77.2958020  14.2653810  51.0001420  75.9964110
  22.7644700  63.8319370  81.8220330  23.4066930  63.1312530  81.9352500
  23.2894050  64.6117810  81.6417220  26.6100420  64.1167990  71.5459470
  26.3838000  63.3998430  72.1384110  26.2196620  63.8680430  70.7081220
  24.5382320  64.6314270  85.0256390  24.8738560  65.2180960  85.7034310
  23.6182660  64.5006980  85.2554180  12.3916450  68.1434850  72.3203930
  12.7514090  68.7424190  71.6661200  12.2508790  68.6894740  73.0938960
  12.0885720  52.4209450  85.8079800  11.3744240  52.6206370  86.4132410
  12.5080760  51.6449020  86.1794600  26.1916670  62.0339930  73.2073630
  25.9038370  62.4952620  73.9951510  26.9868840  61.5737700  73.4757850
  12.3758310  66.4089710  86.7946330  12.4849430  65.4684450  86.6541720
  11.7238870  66.6744460  86.1460060  20.3670900  64.6805600  88.1944450
  20.0467770  63.9614840  88.7390140  19.6929260  65.3560670  88.2680510
  18.4085070  65.5266050  73.1377600  18.3995170  66.2595740  72.5222110
  17.4883430  65.2797630  73.2304560  14.0091710  60.7480940  73.8824360
  13.4019660  61.4879840  73.8919660  14.4841060  60.8380300  73.0562560
  23.5824500  54.9131760  83.5581250  23.9505320  54.0926970  83.8860820
  22.7222700  54.9733650  83.9736900  21.3944670  65.5894290  71.8002790
  21.4956650  65.3858280  70.8704770  20.4946410  65.3352570  72.0050570
  18.9170560  56.1474650  75.7826690  18.2086710  56.6160990  76.2240300
  19.2015040  55.4896660  76.4171880  20.5426490  57.5671350  83.7819220
  21.0411740  58.0417170  84.4471070  20.6849440  56.6434870  83.9889250
  22.9485990  52.8725310  77.2222480  22.8253770  52.8911440  76.2731990
  23.8970550  52.9204250  77.3420880  20.0362780  68.1080610  76.4950460
  20.2904280  68.0702000  75.5729830  19.0875260  67.9813940  76.4878710
  17.1205580  54.4559730  73.1577400  17.9696110  54.8929880  73.0917590
  16.7536850  54.7679990  73.9849460  27.7493350  53.7839310  84.6247610
  27.2466950  54.5244710  84.9641420  28.5650010  54.1723310  84.3084400
  26.0415360  59.0272490  78.0708970  25.1005500  59.0422720  78.2456660
  26.3559430  58.2408450  78.5169270  16.0197000  60.7092090  71.6312930
  16.7860270  60.5973450  72.1938360  16.0971690  60.0130060  70.9789700
  14.7143760  58.1417160  72.3145820  14.7947350  57.1944670  72.4263220
  15.6063510  58.4724040  72.4206480  28.0440940  66.1981340  79.7463230
  28.1688360  67.0212510  80.2187040  28.9106500  65.9872070  79.3987380
  15.5158470  68.2912550  79.4180360  16.2520950  67.7428010  79.6888930
  15.8999390  69.1568560  79.2786350  12.4003950  64.3586120  75.2921870
  11.4743730  64.6007260  75.2827280  12.8660380  65.1860380  75.1706620
  14.5216750  67.4758620  88.6065940  15.3229480  67.7970670  89.0201340
  14.0068570  67.1154200  89.3285850  18.6260780  67.4642860  71.2405930
  19.4189390  67.7531690  70.7887720  18.1065130  67.0335030  70.5618410
  23.3581380  63.5838490  88.5541350  22.7519540  63.6070090  87.8137100
  23.0535490  62.8521530  89.0908600  24.7881750  67.3118780  87.1650760
  25.7403500  67.2276800  87.1151000  24.6409970  67.9760490  87.8384550
  27.6790950  66.6912990  72.6642670  27.3932460  66.2778130  71.8496850
  27.4810500  67.6200700  72.5443190  12.2414560  59.9632080  87.5501990
  12.7453580  59.3839360  88.1218220  11.5021980  60.2472310  88.0878360
  19.1438180  62.6846270  71.1048280  19.0388820  62.0698620  71.8309660
  18.9762400  62.1612160  70.3211290  19.2952500  61.3703070  87.0837510
  18.5298170  61.9388070  86.9992180  19.4768460  61.0779280  86.1905740
  22.3840910  61.7466300  71.7090270  21.8351010  62.1935600  72.3533010
  23.0060170  61.2415550  72.2327940  26.4375850  63.1008400  87.6412530
  27.1785320  63.4384160  87.1379990  25.6748530  63.2700460  87.0882300
  14.2737640  58.1061670  88.4452060  14.3142980  57.8075540  89.3537290
  15.1283140  58.5069280  88.2859580  18.0516030  60.7057220  73.6055570
  18.4732450  60.5397090  74.4486960  18.1766870  59.8957450  73.1110710
  16.2143450  56.6853770  86.4126550  15.6839910  56.1944720  85.7849890
  16.8831520  57.1137970  85.8784480  20.5643670  59.7294830  70.8532670
  21.0849330  59.0143850  70.4873820  21.2112070  60.3680700  71.1533180
  25.1121510  61.1523230  86.1767740  25.5262530  61.3068310  87.0258160
  24.1772510  61.2778450  86.3393520  25.5843680  58.4919390  88.1806890
  26.1664450  57.7371710  88.0927370  25.7605450  59.0226830  87.4038370
  16.7015750  53.6516140  86.4923840  16.6072620  53.0336890  85.7674710
  16.1213140  54.3782430  86.2653750  19.4677190  52.2089380  83.5251230
  19.0194490  52.2313640  82.6796780  18.8342390  51.8108400  84.1221530
  19.8736740  61.1043710  84.1463670  20.2924850  61.9476440  83.9739910
  18.9545370  61.2415750  83.9170450  22.2100640  58.8359890  85.5301510
  22.3296850  58.2401030  86.2696350  23.0694640  58.8729580  85.1102810
  24.5488540  59.3897080  84.1064020  24.0223760  59.9139700  83.5029160
  24.8919880  60.0224470  84.7373750  16.9474930  56.7790450  70.5513730
  16.7463990  55.9157810  70.9127070  16.7766980  56.6923810  69.6135330
  17.7244160  67.4096720  85.2621400  17.1865250  68.1342780  84.9430100
  17.9778120  66.9327060  84.4718740  18.9769410  55.3781240  86.7877330
  19.5669100  55.0697090  87.4755150  18.1589650  54.9060990  86.9437230
  23.7962840  54.9947050  87.0210350  23.1078360  54.3328590  86.9560340
  24.5168860  54.5485320  87.4658810  15.7457730  53.8791070  70.5391610
  16.0483630  53.8858500  69.6310760  16.4852320  53.5288930  71.0359270
  20.5806370  68.6447930  85.5208050  20.5065070  69.5483070  85.8280420
  19.6785210  68.3259830  85.4930120  18.9642660  52.8225690  71.5247810
  18.6164660  52.1449680  70.9450260  19.1655430  52.3615200  72.3391200
  21.1291700  67.8106440  73.1434410  22.0242490  68.1491410  73.1653170
  21.1609330  67.0885850  72.5158690  14.7687860  63.1833490  71.3721410
  15.2062730  63.7263160  72.0278990  15.2535590  62.3580440  71.3817750
  11.9833660  65.9722520  78.8241670  12.3136670  65.1043580  78.5920310
  12.4124660  66.1781040  79.6546630  16.5795580  64.3031530  76.4843640
  16.2791120  64.1796500  77.3847550  16.4733070  63.4440120  76.0759370
  12.4723870  66.8393110  81.5623300  12.0354860  67.0193910  82.3947450
  13.0401550  67.5967730  81.4205020  28.1086050  66.3410110  85.8500610
  27.5088040  66.4002670  85.1064530  28.2379950  65.4015090  85.9797460
  29.3487500  64.0827930  71.1870320  28.5180460  64.1504580  71.6577550
  29.5259330  64.9732050  70.8837180  28.8043960  60.8275410  73.6904520
  29.5662870  61.3972060  73.7964210  28.8198330  60.2602610  74.4612830
  12.3048300  59.3513340  77.9212180  11.6497140  59.0824980  77.2771880
  13.1426250  59.2417820  77.4714160  29.8103930  61.6825510  78.5346450
  30.1812760  60.8992830  78.1282420  30.4505860  62.3714610  78.3563750
  26.7937690  63.0662090  83.9476770  25.9797530  63.4959250  84.2102560
  27.2011890  63.6780500  83.3345820  28.8563130  61.1209780  70.8477040
  29.1311970  62.0288660  70.7196260  28.6673870  61.0572310  71.7839030
  28.7528470  59.0578770  75.8406470  28.3772070  58.2906700  75.4087760
  28.0231590  59.4401470  76.3281400  13.3424230  59.7365910  82.4615520
  13.7097270  59.6493310  83.3411540  12.7735050  58.9732460  82.3622380
  28.1428090  58.2050290  85.4745990  27.9114180  57.9763040  84.5743940
  28.4032640  59.1249840  85.4290880  12.8940230  56.6475000  86.3673940
  11.9996280  56.6141760  86.7067650  13.4337780  56.8461790  87.1325190
  26.5816160  53.4306720  88.2525690  27.4586340  53.4390120  88.6359690
  26.5937000  52.6937560  87.6418040  11.5186380  56.5612270  73.8637510
  10.6150460  56.8242470  73.6889170  12.0027000  56.8323440  73.0837470
  28.0279430  57.2836260  79.1413710  28.5516910  56.7898910  78.5103880
  28.6138850  57.4186620  79.8861280  28.2069150  57.3676130  82.6633260
  27.2571860  57.3339670  82.7778250  28.3882160  58.2776240  82.4283030
  14.0613590  55.6177810  71.7731890  14.7705290  55.1961030  71.2879170
  13.3453530  55.6853040  71.1415240  13.7087750  51.6717140  70.8134540
  14.4315880  52.2126080  71.1315760  13.9812270  51.3980560  69.9376080
  13.3979940  50.9223330  80.7157160  14.0456130  50.3720710  80.2752320
  13.8181780  51.1766480  81.5372970  28.9466560  55.1770560  77.6143800
  28.8365840  55.0226600  78.5526070  29.7074150  54.6491500  77.3719210
  27.2932280  51.1164690  84.0726800  27.9304500  51.7298830  84.4385990
  27.4407170  51.1525350  83.1276030  26.8513740  67.8180690  77.4745040
  27.4472810  67.4965260  76.7979460  27.1091890  67.3452510  78.2658310
  13.1511940  51.0779000  83.4582480  12.8026760  51.5342820  84.2240660
  12.8199640  50.1836130  83.5404910  14.7576310  64.2498600  87.6235670
  14.7145940  63.8791510  88.5050130  14.8887320  65.1876170  87.7637490
  18.4582340  65.8058190  83.2245390  18.2173700  66.0732750  82.3375910
  19.3984980  65.9763920  83.2796250  20.6636760  52.2690880  86.9801900
  20.6025650  52.8612710  87.7297310  21.6037140  52.1616840  86.8352160
  23.3011320  51.9260940  86.6194190  23.9151730  52.2440230  85.9575270
  23.8460880  51.4409530  87.2390050  29.7186500  67.8252570  84.0256030
  29.2244780  68.2221440  83.3083160  29.1099790  67.2001780  84.4193310
  13.8232580  50.6055200  86.7333250  14.3715570  50.4243250  85.9699360
  13.8887890  49.8149310  87.2689560  14.5964340  67.1960850  84.7433450
  14.0024660  67.0645550  85.4823490  14.5888180  66.3598990  84.2775550
  24.0419360  50.4893080  82.9463480  23.1679200  50.8228190  82.7436410
  23.9330110  50.0166260  83.7715350  24.9491340  52.6963950  84.3305200
  24.6204700  51.8815710  83.9506930  25.8973640  52.6533760  84.2070890
  27.4025950  68.4675990  81.3042770  26.9428920  69.2191800  80.9300790
  26.7738410  67.7482460  81.2457570  14.2276570  64.5619230  83.6941490
  13.5010630  63.9424520  83.6267440  14.2885720  64.9559840  82.8239570
  17.8321670  66.7764230  80.4790900  18.3486690  66.1651590  79.9539160
  18.4819050  67.2793010  80.9701910  20.5717170  67.6672720  81.3059880
  20.8594980  67.4127020  80.4292890  21.0840390  67.1150080  81.8965450
  21.7894180  51.4062920  81.8856390  21.0065970  51.8808420  82.1653150
  21.4957110  50.5017750  81.7769570  12.5106570  67.8793620  76.9038250
  12.3428610  67.2464300  77.6020140  11.6441080  68.0853020  76.5532440
  13.1334590  51.7110400  74.4070110  13.8913950  51.8239280  73.8334140
  12.6711760  52.5479600  74.3613540  19.6748400  53.8249670  77.3972420
  18.8622910  53.4506560  77.0568300  20.1790040  53.0694750  77.6993610
  14.1169270  66.5726850  74.3488390  13.5916890  66.9534880  73.6450350
  14.0413850  67.1977620  75.0698100  15.5059740  52.2374450  72.9472080
  16.0352500  51.4504250  72.8180030  16.1388060  52.9165640  73.1807610
  17.6997580  51.9749590  76.0017470  17.0700320  51.2736900  76.1687600
  17.1602720  52.7353720  75.7850630  20.6389530  68.5888820  88.6728080
  21.5656840  68.3533090  88.7164040  20.6239960  69.4160820  88.1914110
  28.8734590  68.1314390  75.6702330  29.0486780  67.4452130  75.0263250
  28.1756160  68.6561440  75.2779000  17.8253140  51.2533570  88.4369960
  17.5437410  51.7567170  87.6730780  18.2072840  50.4555320  88.0712090
  16.7162240  68.5209230  73.2237640  17.4481060  68.2368510  72.6761530
  16.9755910  68.2822510  74.1137020  15.8777030  64.6373960  73.2283970
  15.2485910  65.1059060  73.7769800  15.9924860  63.7923180  73.6630160
  24.4268600  50.6687150  89.0150430  24.3134050  50.9881760  89.9101950
  25.2438340  51.0699660  88.7187710  27.2067090  67.8158680  88.4969120
  27.9992410  67.3207910  88.2895080  27.5000240  68.4948820  89.1044730
  23.3326750  58.6879620  59.3785170  23.2520800  57.7734230  59.1076880
  22.9191170  59.1846690  58.6724880  21.4644790  60.4658640  61.2594440
  20.6886890  59.9859080  61.5493010  22.1157720  59.7864290  61.0850600
  15.4810620  60.7778450  62.1370200  14.6495500  60.5227160  62.5366710
  16.0891600  60.8489220  62.8728120  25.4852220  64.8718830  60.0393570
  25.0233750  64.1006070  60.3680740  26.2977770  64.8984900  60.5446020
  15.4611880  64.8118540  62.3328220  15.7639920  63.9216280  62.1538440
  16.2055470  65.3688760  62.1050470  13.8902570  55.7380340  55.9212590
  13.0019270  56.0796310  55.8192470  14.1743760  55.5380660  55.0293420
  11.8535580  58.3385990  61.8052290  12.4251690  57.5708190  61.8055930
  11.8537120  58.6374750  60.8958900  21.7115530  67.1576840  59.6597560
  21.0926970  67.6134340  59.0892000  22.5667310  67.3128300  59.2587260
  20.9053780  63.1415830  61.2664600  20.8362060  62.2005770  61.1053730
  21.6673640  63.2317240  61.8387170  13.0960450  53.7470350  63.5921220
  12.9163290  52.8496100  63.8723980  12.6940530  54.2942220  64.2668170
  16.0663960  54.3211840  56.9550970  16.1730710  55.2215570  57.2619730
  15.1556320  54.2729810  56.6645620  13.7147120  56.2430850  62.2003560
  14.3957230  56.5069220  62.8190960  13.3995170  55.4031720  62.5341570
  17.9071690  57.2898210  61.2876150  18.4149910  57.7879180  61.9281170
  18.4384930  56.5133410  61.1115510  16.1907790  51.9296770  65.5539570
  16.1926230  52.4469160  64.7485470  15.3612100  51.4526950  65.5309500
  22.5778880  62.0416080  57.0529470  21.9596150  62.5065530  56.4892190
  23.0902130  62.7343560  57.4698980  17.4410640  61.5691950  63.7313070
  17.1080020  62.1960870  64.3734140  17.6177320  62.0953830  62.9514740
  15.8723120  53.6406730  63.5610020  16.2139930  54.4848780  63.2663890
  14.9338930  53.7890470  63.6775360  16.6529740  63.5372750  65.5462250
  17.2703740  64.2123830  65.2646700  15.7922860  63.9460730  65.4549750
  11.9462080  62.7272610  54.4269100  11.5690060  63.2159710  53.6954000
  12.2035150  63.3997890  55.0575630  27.5707330  65.0012160  63.4616890
  26.8870850  65.6711270  63.4533560  28.1101620  65.1992810  62.6961750
  19.5551010  51.1289000  59.8854610  19.8625990  50.5735890  59.1690110
  18.6251710  51.2633460  59.7027600  25.1066070  66.8456290  62.1762070
  25.1193230  66.4418580  61.3084330  24.5541290  67.6203580  62.0723500
  26.4011490  63.5672510  57.2652240  26.2907820  62.6246840  57.3901660
  26.3979740  63.9288150  58.1515000  24.5051510  61.7486130  63.5044680
  24.9220300  61.5346240  62.6698140  25.2291330  62.0058920  64.0753300
  21.9431770  59.1937830  56.6214730  21.0161050  59.1275210  56.8503200
  22.0956590  60.1317960  56.5069970  21.9300850  55.4654830  53.6181890
  20.9904520  55.6268790  53.7034350  22.2484110  56.1840510  53.0717880
  25.9729060  60.7558130  57.1249980  25.3541480  60.4177680  56.4776280
  25.9553510  60.1117890  57.8329170  17.5488410  59.7202570  59.4034460
  17.1445410  59.0079820  58.9080360  17.6351530  59.3755810  60.2922500
  18.0170110  63.4070130  61.5673670  17.7198400  62.8015600  60.8881450
  18.9669930  63.4447440  61.4563030  16.2617030  56.4945780  63.1833500
  16.8131620  56.6041120  62.4086750  16.7760540  56.8683380  63.8988730
  26.1055720  66.9802000  65.2296770  25.6286280  67.7874190  65.0369380
  25.4217510  66.3280330  65.3822980  17.1088540  63.1451820  68.2181470
  16.2117070  63.3691790  68.4654870  17.1341410  63.2686760  67.2692870
  24.1493760  59.9944940  54.1322730  24.5887040  59.1567370  53.9860550
  24.8622180  60.6274340  54.2186870  15.9359760  60.0165140  66.7938840
  15.7967530  60.8887940  67.1626240  15.0541120  59.6737950  66.6486780
  22.2589140  64.9341010  58.1003970  22.6985050  65.6765340  57.6859360
  22.1976030  65.1767580  59.0242930  17.7340110  65.9586840  69.0023990
  17.7055540  66.3629790  68.1352420  17.5705080  65.0297200  68.8395590
  14.2493040  58.6147550  56.9041110  14.1290640  59.3409640  56.2922380
  13.9393930  57.8450460  56.4269020  29.6854930  66.7413940  70.2988160
  30.1614650  67.2196830  70.9777240  30.3062090  66.6731430  69.5733660
  11.8878410  61.7862690  62.7109750  11.9658830  61.9211460  61.7665470
  12.5020090  61.0778580  62.9037870  13.1326040  63.4862880  59.1215930
  12.7254120  63.6277470  58.2669530  14.0239050  63.2023040  58.9187140
  29.0888180  63.9326790  67.4588170  29.2151240  63.6938670  66.5405350
  29.1309560  63.1011330  67.9310250  22.9504920  67.6354790  66.0282980
  23.4649590  67.5462800  66.8305410  22.1074000  67.9814490  66.3210890
  24.9259320  67.9210130  55.4566980  24.7660460  67.6313070  56.3548810
  24.7606030  67.1450260  54.9212210  17.4047700  67.7008660  57.2338600
  17.2290180  66.7844200  57.0206400  16.5503440  68.0595950  57.4736400
  24.6285450  65.4297690  54.0164980  23.9350610  65.4274980  53.3567260
  25.3708310  65.0057010  53.5859150  24.1935380  67.0560400  58.0913470
  24.6492330  66.2749780  58.4052090  24.5327900  67.7667220  58.6354650
  11.9437930  62.8276860  65.2504210  12.1068970  62.3582220  64.4323580
  12.4090380  62.3200420  65.9153050  16.7156700  51.9582620  60.2864780
  16.2724850  52.7392160  59.9549300  17.2741690  52.2812510  60.9935720
  19.8315520  51.5793320  55.1670610  19.2069700  51.5753190  55.8923920
  19.7445640  50.7124280  54.7706580  18.7532600  52.5029950  62.1454380
  19.0504930  53.4092780  62.0646400  19.3018160  52.0148730  61.5313950
  16.5070920  57.0816190  58.0146030  16.2811840  56.8653360  58.9192650
  15.7263450  57.5144650  57.6692000  23.7368680  57.0879560  56.6136680
  23.1377570  57.8115360  56.4300300  24.2848290  57.0256340  55.8313130
  22.3433550  55.7243100  58.6439960  22.7363120  56.0415300  57.8308650
  22.7050400  54.8454980  58.7584480  14.0780670  54.3915440  66.8340080
  13.6844060  55.2390650  67.0412860  13.3899070  53.7541810  67.0248720
  11.3797720  52.3143900  60.8670160  11.0910770  52.8846760  61.5795140
  12.1243480  51.8348350  61.2301390  11.5667950  56.2564020  52.0772880
  11.4842620  57.1994780  52.2187870  11.2151010  56.1138930  51.1985230
  22.9288690  58.3148850  62.7390740  22.1969810  58.8235660  63.0880840
  22.5313030  57.4978830  62.4379520  19.3666080  54.9903050  61.1443230
  19.3702140  54.5493000  60.2947770  20.2617200  55.3120380  61.2515050
  15.2168460  54.8729540  60.1037440  14.8768510  55.3504770  60.8604490
  14.4545780  54.4194660  59.7438540  19.4286230  55.9915130  54.1349990
  19.5499050  55.9501610  55.0835810  19.0434740  56.8539280  53.9796720
  18.4407730  58.3016270  53.5333290  17.8724630  57.8534520  52.9069200
  19.1496730  58.6609050  52.9998440  13.5176910  62.2028290  67.4100020
  13.1331700  61.5621960  68.0082980  13.8289100  62.9064410  67.9794750
  19.6674050  59.0504830  62.8908640  20.0344180  58.5763400  63.6369980
  19.4779110  59.9246400  63.2316980  12.5314540  53.7948520  59.0202110
  12.2461460  53.4304190  59.8580730  12.4693400  53.0628980  58.4065250
  17.4573420  58.0913470  65.2092850  17.1530490  58.9705450  65.4343210
  18.4119880  58.1513260  65.2450290  15.9855210  62.2974460  55.8059700
  15.2117470  61.7572080  55.6458420  16.7149840  61.7781070  55.4677460
  26.7443190  61.2939820  61.5986090  27.4642310  61.7895110  61.2082200
  26.5425010  60.6157710  60.9539960  22.2053130  52.6877780  55.7415480
  21.3917740  52.1890950  55.6660790  22.0115080  53.5276030  55.3251830
  22.1261990  61.3648880  67.4855090  22.0599300  60.4444550  67.2312680
  21.4967130  61.4624320  68.1999730  24.9201520  57.0597430  54.0377640
  25.8081140  57.3714660  53.8628980  24.8906610  56.1869680  53.6458220
  16.0292610  61.9654840  59.4438510  16.5471280  61.1623100  59.3895400
  15.5776630  61.9033980  60.2855340  20.9162110  63.2321120  54.7165810
  21.2577810  63.9763350  54.2209130  20.0874820  63.5452240  55.0790640
  13.5137150  58.9316210  66.3564210  13.1552090  59.5970060  66.9437550
  13.2191710  58.0999760  66.7276830  16.7150270  59.3900450  69.2403760
  16.4150410  59.5357630  68.3431580  17.4861510  58.8305740  69.1477150
  22.0578720  64.1869450  67.2358890  22.0723260  63.2550410  67.0177800
  21.3503820  64.2729210  67.8748660  27.1915790  58.3709270  53.5057500
  27.1079510  58.8023490  52.6553940  27.9109980  58.8307620  53.9384320
  28.2203040  65.2251530  56.2339630  27.5779200  64.5707150  56.5083350
  27.8333700  65.6306620  55.4580300  23.7989520  62.5536960  60.0811320
  24.1513340  61.9565090  59.4212690  22.9151850  62.2281190  60.2519570
  19.8852800  63.3134650  57.4881730  20.5723930  63.8603860  57.8689320
  19.0985220  63.8575380  57.5231340  12.0245200  58.9307470  52.9798810
  12.8940050  59.2132270  53.2634730  11.5335520  59.7443340  52.8647620
  19.1880010  60.3180680  57.1007090  19.6442790  61.1285930  57.3267280
  18.8368220  60.0003820  57.9325580  21.4912620  65.8287020  64.3299390
  22.1354840  66.0346400  65.0072810  21.8542060  65.0675420  63.8770240
  15.0891790  50.6618330  57.5729610  14.9606420  50.6536230  58.5214530
  14.2653810  51.0001420  57.2220620  22.7644700  63.8319370  63.0476840
  23.4066930  63.1312530  63.1609010  23.2894050  64.6117810  62.8673730
  26.6100420  64.1167990  52.7715980  26.3838000  63.3998430  53.3640620
  26.2196620  63.8680430  51.9337730  24.5382320  64.6314270  66.2512900
  24.8738560  65.2180960  66.9290820  23.6182660  64.5006980  66.4810690
  12.3916450  68.1434850  53.5460440  12.7514090  68.7424190  52.8917710
  12.2508790  68.6894740  54.3195470  12.0885720  52.4209450  67.0336310
  11.3744240  52.6206370  67.6388920  12.5080760  51.6449020  67.4051110
  26.1916670  62.0339930  54.4330140  25.9038370  62.4952620  55.2208020
  26.9868840  61.5737700  54.7014360  12.3758310  66.4089710  68.0202840
  12.4849430  65.4684450  67.8798230  11.7238870  66.6744460  67.3716570
  20.3670900  64.6805600  69.4200960  20.0467770  63.9614840  69.9646650
  19.6929260  65.3560670  69.4937020  18.4085070  65.5266050  54.3634110
  18.3995170  66.2595740  53.7478620  17.4883430  65.2797630  54.4561070
  14.0091710  60.7480940  55.1080870  13.4019660  61.4879840  55.1176170
  14.4841060  60.8380300  54.2819070  21.3944670  65.5894290  53.0259300
  21.4956650  65.3858280  52.0961280  20.4946410  65.3352570  53.2307080
  18.9170560  56.1474650  57.0083200  18.2086710  56.6160990  57.4496810
  19.2015040  55.4896660  57.6428390  20.0362780  68.1080610  57.7206970
  20.2904280  68.0702000  56.7986340  19.0875260  67.9813940  57.7135220
  17.1205580  54.4559730  54.3833910  17.9696110  54.8929880  54.3174100
  16.7536850  54.7679990  55.2105970  16.0197000  60.7092090  52.8569440
  16.7860270  60.5973450  53.4194870  16.0971690  60.0130060  52.2046210
  14.7143760  58.1417160  53.5402330  14.7947350  57.1944670  53.6519730
  15.6063510  58.4724040  53.6462990  28.0440940  66.1981340  60.9719740
  28.1688360  67.0212510  61.4443550  28.9106500  65.9872070  60.6243890
  15.5158470  68.2912550  60.6436870  16.2520950  67.7428010  60.9145440
  15.8999390  69.1568560  60.5042860  12.4003950  64.3586120  56.5178380
  11.4743730  64.6007260  56.5083790  12.8660380  65.1860380  56.3963130
  14.5216750  67.4758620  69.8322450  15.3229480  67.7970670  70.2457850
  14.0068570  67.1154200  70.5542360  18.6260780  67.4642860  52.4662440
  19.4189390  67.7531690  52.0144230  18.1065130  67.0335030  51.7874920
  23.3581380  63.5838490  69.7797860  22.7519540  63.6070090  69.0393610
  23.0535490  62.8521530  70.3165110  24.7881750  67.3118780  68.3907270
  25.7403500  67.2276800  68.3407510  24.6409970  67.9760490  69.0641060
  27.6790950  66.6912990  53.8899180  27.3932460  66.2778130  53.0753360
  27.4810500  67.6200700  53.7699700  12.2414560  59.9632080  68.7758500
  12.7453580  59.3839360  69.3474730  11.5021980  60.2472310  69.3134870
  19.1438180  62.6846270  52.3304790  19.0388820  62.0698620  53.0566170
  18.9762400  62.1612160  51.5467800  19.2952500  61.3703070  68.3094020
  18.5298170  61.9388070  68.2248690  19.4768460  61.0779280  67.4162250
  22.3840910  61.7466300  52.9346780  21.8351010  62.1935600  53.5789520
  23.0060170  61.2415550  53.4584450  26.4375850  63.1008400  68.8669040
  27.1785320  63.4384160  68.3636500  25.6748530  63.2700460  68.3138810
  14.2737640  58.1061670  69.6708570  14.3142980  57.8075540  70.5793800
  15.1283140  58.5069280  69.5116090  18.0516030  60.7057220  54.8312080
  18.4732450  60.5397090  55.6743470  18.1766870  59.8957450  54.3367220
  16.2143450  56.6853770  67.6383060  15.6839910  56.1944720  67.0106400
  16.8831520  57.1137970  67.1040990  20.5643670  59.7294830  52.0789180
  21.0849330  59.0143850  51.7130330  21.2112070  60.3680700  52.3789690
  25.1121510  61.1523230  67.4024250  25.5262530  61.3068310  68.2514670
  24.1772510  61.2778450  67.5650030  25.5843680  58.4919390  69.4063400
  26.1664450  57.7371710  69.3183880  25.7605450  59.0226830  68.6294880
  16.7015750  53.6516140  67.7180350  16.6072620  53.0336890  66.9931220
  16.1213140  54.3782430  67.4910260  19.8736740  61.1043710  65.3720180
  20.2924850  61.9476440  65.1996420  18.9545370  61.2415750  65.1426960
  16.9474930  56.7790450  51.7770240  16.7463990  55.9157810  52.1383580
  16.7766980  56.6923810  50.8391840  17.7244160  67.4096720  66.4877910
  17.1865250  68.1342780  66.1686610  17.9778120  66.9327060  65.6975250
  24.4263240  51.5898680  54.3057120  24.7065530  50.7466580  54.6616540
  23.6528970  51.8221790  54.8195870  15.7457730  53.8791070  51.7648120
  16.0483630  53.8858500  50.8567270  16.4852320  53.5288930  52.2615780
  20.5806370  68.6447930  66.7464560  20.5065070  69.5483070  67.0536930
  19.6785210  68.3259830  66.7186630  18.9642660  52.8225690  52.7504320
  18.6164660  52.1449680  52.1706770  19.1655430  52.3615200  53.5647710
  21.1291700  67.8106440  54.3690920  22.0242490  68.1491410  54.3909680
  21.1609330  67.0885850  53.7415200  14.7687860  63.1833490  52.5977920
  15.2062730  63.7263160  53.2535500  15.2535590  62.3580440  52.6074260
  11.9833660  65.9722520  60.0498180  12.3136670  65.1043580  59.8176820
  12.4124660  66.1781040  60.8803140  16.5795580  64.3031530  57.7100150
  16.2791120  64.1796500  58.6104060  16.4733070  63.4440120  57.3015880
  12.4723870  66.8393110  62.7879810  12.0354860  67.0193910  63.6203960
  13.0401550  67.5967730  62.6461530  28.1086050  66.3410110  67.0757120
  27.5088040  66.4002670  66.3321040  28.2379950  65.4015090  67.2053970
  29.3487500  64.0827930  52.4126830  28.5180460  64.1504580  52.8834060
  29.5259330  64.9732050  52.1093690  28.8043960  60.8275410  54.9161030
  29.5662870  61.3972060  55.0220720  28.8198330  60.2602610  55.6869340
  12.3048300  59.3513340  59.1468690  11.6497140  59.0824980  58.5028390
  13.1426250  59.2417820  58.6970670  29.8103930  61.6825510  59.7602960
  30.1812760  60.8992830  59.3538930  30.4505860  62.3714610  59.5820260
  26.7937690  63.0662090  65.1733280  25.9797530  63.4959250  65.4359070
  27.2011890  63.6780500  64.5602330  28.8563130  61.1209780  52.0733550
  29.1311970  62.0288660  51.9452770  28.6673870  61.0572310  53.0095540
  25.2538740  54.1454630  53.3687180  25.6723620  53.9585610  52.5283840
  24.9474800  53.2933680  53.6790110  13.3424230  59.7365910  63.6872030
  13.7097270  59.6493310  64.5668050  12.7735050  58.9732460  63.5878890
  12.8940230  56.6475000  67.5930450  11.9996280  56.6141760  67.9324160
  13.4337780  56.8461790  68.3581700  11.5186380  56.5612270  55.0894020
  10.6150460  56.8242470  54.9145680  12.0027000  56.8323440  54.3093980
  14.0613590  55.6177810  52.9988400  14.7705290  55.1961030  52.5135680
  13.3453530  55.6853040  52.3671750  13.7087750  51.6717140  52.0391050
  14.4315880  52.2126080  52.3572270  13.9812270  51.3980560  51.1632590
  13.3979940  50.9223330  61.9413670  14.0456130  50.3720710  61.5008830
  13.8181780  51.1766480  62.7629480  26.8513740  67.8180690  58.7001550
  27.4472810  67.4965260  58.0235970  27.1091890  67.3452510  59.4914820
  13.1511940  51.0779000  64.6838990  12.8026760  51.5342820  65.4497170
  12.8199640  50.1836130  64.7661420  14.7576310  64.2498600  68.8492180
  14.7145940  63.8791510  69.7306640  14.8887320  65.1876170  68.9894000
  18.4582340  65.8058190  64.4501900  18.2173700  66.0732750  63.5632420
  19.3984980  65.9763920  64.5052760  20.6636760  52.2690880  68.2058410
  20.6025650  52.8612710  68.9553820  21.6037140  52.1616840  68.0608670
  29.7186500  67.8252570  65.2512540  29.2244780  68.2221440  64.5339670
  29.1099790  67.2001780  65.6449820  13.8232580  50.6055200  67.9589760
  14.3715570  50.4243250  67.1955870  13.8887890  49.8149310  68.4946070
  14.5964340  67.1960850  65.9689960  14.0024660  67.0645550  66.7080000
  14.5888180  66.3598990  65.5032060  27.4025950  68.4675990  62.5299280
  26.9428920  69.2191800  62.1557300  26.7738410  67.7482460  62.4714080
  14.2276570  64.5619230  64.9198000  13.5010630  63.9424520  64.8523950
  14.2885720  64.9559840  64.0496080  17.8321670  66.7764230  61.7047410
  18.3486690  66.1651590  61.1795670  18.4819050  67.2793010  62.1958420
  20.5717170  67.6672720  62.5316390  20.8594980  67.4127020  61.6549400
  21.0840390  67.1150080  63.1221960  12.5106570  67.8793620  58.1294760
  12.3428610  67.2464300  58.8276650  11.6441080  68.0853020  57.7788950
  13.1334590  51.7110400  55.6326620  13.8913950  51.8239280  55.0590650
  12.6711760  52.5479600  55.5870050  19.6748400  53.8249670  58.6228930
  18.8622910  53.4506560  58.2824810  20.1790040  53.0694750  58.9250120
  14.1169270  66.5726850  55.5744900  13.5916890  66.9534880  54.8706860
  14.0413850  67.1977620  56.2954610  15.5059740  52.2374450  54.1728590
  16.0352500  51.4504250  54.0436540  16.1388060  52.9165640  54.4064120
  17.6997580  51.9749590  57.2273980  17.0700320  51.2736900  57.3944110
  17.1602720  52.7353720  57.0107140  20.6389530  68.5888820  69.8984590
  21.5656840  68.3533090  69.9420550  20.6239960  69.4160820  69.4170620
  28.8734590  68.1314390  56.8958840  29.0486780  67.4452130  56.2519760
  28.1756160  68.6561440  56.5035510  17.8253140  51.2533570  69.6626470
  17.5437410  51.7567170  68.8987290  18.2072840  50.4555320  69.2968600
  16.7162240  68.5209230  54.4494150  17.4481060  68.2368510  53.9018040
  16.9755910  68.2822510  55.3393530  15.8777030  64.6373960  54.4540480
  15.2485910  65.1059060  55.0026310  15.9924860  63.7923180  54.8886670
  27.2067090  67.8158680  69.7225630  27.9992410  67.3207910  69.5151590
  27.5000240  68.4948820  70.3301240  23.3326750  58.6879620  40.6041680
  23.2520800  57.7734230  40.3333390  22.9191170  59.1846690  39.8981390
  21.4644790  60.4658640  42.4850950  20.6886890  59.9859080  42.7749520
  22.1157720  59.7864290  42.3107110  15.4810620  60.7778450  43.3626710
  14.6495500  60.5227160  43.7623220  16.0891600  60.8489220  44.0984630
  25.4852220  64.8718830  41.2650080  25.0233750  64.1006070  41.5937250
  26.2977770  64.8984900  41.7702530  15.4611880  64.8118540  43.5584730
  15.7639920  63.9216280  43.3794950  16.2055470  65.3688760  43.3306980
  13.8902570  55.7380340  37.1469100  13.0019270  56.0796310  37.0448980
  14.1743760  55.5380660  36.2549930  11.8535580  58.3385990  43.0308800
  12.4251690  57.5708190  43.0312440  11.8537120  58.6374750  42.1215410
  21.7115530  67.1576840  40.8854070  21.0926970  67.6134340  40.3148510
  22.5667310  67.3128300  40.4843770  20.9053780  63.1415830  42.4921110
  20.8362060  62.2005770  42.3310240  21.6673640  63.2317240  43.0643680
  13.0960450  53.7470350  44.8177730  12.9163290  52.8496100  45.0980490
  12.6940530  54.2942220  45.4924680  21.9358950  55.9486210  42.7190040
  22.3123770  55.0758090  42.6063710  21.8378460  56.2844910  41.8280480
  16.0663960  54.3211840  38.1807480  16.1730710  55.2215570  38.4876240
  15.1556320  54.2729810  37.8902130  25.7183070  53.4436650  39.6518380
  26.5392690  52.9533220  39.6943860  25.7517150  54.0334310  40.4050220
  13.7147120  56.2430850  43.4260070  14.3957230  56.5069220  44.0447470
  13.3995170  55.4031720  43.7598080  17.9071690  57.2898210  42.5132660
  18.4149910  57.7879180  43.1537680  18.4384930  56.5133410  42.3372020
  30.0082620  55.4603400  46.2162010  29.3034790  55.8485110  45.6977120
  30.2740540  56.1553690  46.8182940  16.1907790  51.9296770  46.7796080
  16.1926230  52.4469160  45.9741980  15.3612100  51.4526950  46.7566010
  22.5778880  62.0416080  38.2785980  21.9596150  62.5065530  37.7148700
  23.0902130  62.7343560  38.6955490  17.4410640  61.5691950  44.9569580
  17.1080020  62.1960870  45.5990650  17.6177320  62.0953830  44.1771250
  25.9544550  55.3837030  42.4245920  25.2500120  55.6721920  43.0049030
  26.3156710  56.1937140  42.0645480  15.8723120  53.6406730  44.7866530
  16.2139930  54.4848780  44.4920400  14.9338930  53.7890470  44.9031870
  16.6529740  63.5372750  46.7718760  17.2703740  64.2123830  46.4903210
  15.7922860  63.9460730  46.6806260  11.9462080  62.7272610  35.6525610
  11.5690060  63.2159710  34.9210510  12.2035150  63.3997890  36.2832140
  27.5707330  65.0012160  44.6873400  26.8870850  65.6711270  44.6790070
  28.1101620  65.1992810  43.9218260  29.0231470  54.8291820  42.8155130
  28.0756380  54.8630800  42.9470560  29.3481460  55.6430770  43.2004490
  19.5551010  51.1289000  41.1111120  19.8625990  50.5735890  40.3946620
  18.6251710  51.2633460  40.9284110  25.1066070  66.8456290  43.4018580
  25.1193230  66.4418580  42.5340840  24.5541290  67.6203580  43.2980010
  26.4011490  63.5672510  38.4908750  26.2907820  62.6246840  38.6158170
  26.3979740  63.9288150  39.3771510  24.5051510  61.7486130  44.7301190
  24.9220300  61.5346240  43.8954650  25.2291330  62.0058920  45.3009810
  21.9431770  59.1937830  37.8471240  21.0161050  59.1275210  38.0759710
  22.0956590  60.1317960  37.7326480  21.9300850  55.4654830  34.8438400
  20.9904520  55.6268790  34.9290860  22.2484110  56.1840510  34.2974390
  28.4513610  60.1473350  44.8217430  27.6232240  60.2166440  44.3467560
  29.0464090  60.7327660  44.3533260  25.9729060  60.7558130  38.3506490
  25.3541480  60.4177680  37.7032790  25.9553510  60.1117890  39.0585680
  25.4155620  56.9342670  45.7672300  25.0026800  57.7596380  46.0212290
  24.6831570  56.3487710  45.5748660  17.5488410  59.7202570  40.6290970
  17.1445410  59.0079820  40.1336870  17.6351530  59.3755810  41.5179010
  18.0170110  63.4070130  42.7930180  17.7198400  62.8015600  42.1137960
  18.9669930  63.4447440  42.6819540  16.2617030  56.4945780  44.4090010
  16.8131620  56.6041120  43.6343260  16.7760540  56.8683380  45.1245240
  26.1055720  66.9802000  46.4553280  25.6286280  67.7874190  46.2625890
  25.4217510  66.3280330  46.6079490  17.1088540  63.1451820  49.4437980
  16.2117070  63.3691790  49.6911380  17.1341410  63.2686760  48.4949380
  24.1493760  59.9944940  35.3579240  24.5887040  59.1567370  35.2117060
  24.8622180  60.6274340  35.4443380  15.9359760  60.0165140  48.0195350
  15.7967530  60.8887940  48.3882750  15.0541120  59.6737950  47.8743290
  22.2589140  64.9341010  39.3260480  22.6985050  65.6765340  38.9115870
  22.1976030  65.1767580  40.2499440  17.7340110  65.9586840  50.2280500
  17.7055540  66.3629790  49.3608930  17.5705080  65.0297200  50.0652100
  14.2493040  58.6147550  38.1297620  14.1290640  59.3409640  37.5178890
  13.9393930  57.8450460  37.6525530  29.6854930  66.7413940  51.5244670
  30.1614650  67.2196830  52.2033750  30.3062090  66.6731430  50.7990170
  11.8878410  61.7862690  43.9366260  11.9658830  61.9211460  42.9921980
  12.5020090  61.0778580  44.1294380  13.1326040  63.4862880  40.3472440
  12.7254120  63.6277470  39.4926040  14.0239050  63.2023040  40.1443650
  29.0888180  63.9326790  48.6844680  29.2151240  63.6938670  47.7661860
  29.1309560  63.1011330  49.1566760  22.9504920  67.6354790  47.2539490
  23.4649590  67.5462800  48.0561920  22.1074000  67.9814490  47.5467400
  24.9259320  67.9210130  36.6823490  24.7660460  67.6313070  37.5805320
  24.7606030  67.1450260  36.1468720  17.4047700  67.7008660  38.4595110
  17.2290180  66.7844200  38.2462910  16.5503440  68.0595950  38.6992910
  24.6285450  65.4297690  35.2421490  23.9350610  65.4274980  34.5823770
  25.3708310  65.0057010  34.8115660  24.1935380  67.0560400  39.3169980
  24.6492330  66.2749780  39.6308600  24.5327900  67.7667220  39.8611160
  28.9412190  55.9859250  49.6494420  28.3256460  56.4938920  49.1209880
  28.6208610  55.0857580  49.5920360  11.9437930  62.8276860  46.4760720
  12.1068970  62.3582220  45.6580090  12.4090380  62.3200420  47.1409560
  16.7156700  51.9582620  41.5121290  16.2724850  52.7392160  41.1805810
  17.2741690  52.2812510  42.2192230  21.0026510  54.8251140  47.1156610
  20.5405880  55.0334160  47.9276550  20.6004620  54.0110490  46.8127280
  26.0031020  56.0460090  48.2453270  25.1524610  55.7465840  48.5662340
  25.8432810  56.2902100  47.3337090  23.0980730  57.5461840  50.3452060
  23.4234140  56.7125590  50.0054290  23.8861060  58.0690360  50.4930390
  19.8315520  51.5793320  36.3927120  19.2069700  51.5753190  37.1180430
  19.7445640  50.7124280  35.9963090  18.7532600  52.5029950  43.3710890
  19.0504930  53.4092780  43.2902910  19.3018160  52.0148730  42.7570460
  16.5070920  57.0816190  39.2402540  16.2811840  56.8653360  40.1449160
  15.7263450  57.5144650  38.8948510  23.7368680  57.0879560  37.8393190
  23.1377570  57.8115360  37.6556810  24.2848290  57.0256340  37.0569640
  18.9470130  57.9801770  49.9062810  18.8513730  57.0396500  49.7563210
  19.7902110  58.2016840  49.5110880  22.3433550  55.7243100  39.8696470
  22.7363120  56.0415300  39.0565160  22.7050400  54.8454980  39.9840990
  14.0780670  54.3915440  48.0596590  13.6844060  55.2390650  48.2669370
  13.3899070  53.7541810  48.2505230  20.6525720  54.4750410  51.1293330
  19.9624040  54.2822610  51.7639420  21.3958020  54.7585050  51.6617630
  11.3797720  52.3143900  42.0926670  11.0910770  52.8846760  42.8051650
  12.1243480  51.8348350  42.4557900  11.5667950  56.2564020  33.3029390
  11.4842620  57.1994780  33.4444380  11.2151010  56.1138930  32.4241740
  22.9288690  58.3148850  43.9647250  22.1969810  58.8235660  44.3137350
  22.5313030  57.4978830  43.6636030  19.3666080  54.9903050  42.3699740
  19.3702140  54.5493000  41.5204280  20.2617200  55.3120380  42.4771560
  15.2168460  54.8729540  41.3293950  14.8768510  55.3504770  42.0861000
  14.4545780  54.4194660  40.9695050  19.4286230  55.9915130  35.3606500
  19.5499050  55.9501610  36.3092320  19.0434740  56.8539280  35.2053230
  23.3914600  53.7682530  43.3770190  23.4087340  54.2191180  44.2212040
  23.1430180  52.8688170  43.5903630  18.4407730  58.3016270  34.7589800
  17.8724630  57.8534520  34.1325710  19.1496730  58.6609050  34.2254950
  13.5176910  62.2028290  48.6356530  13.1331700  61.5621960  49.2339490
  13.8289100  62.9064410  49.2051260  19.6674050  59.0504830  44.1165150
  20.0344180  58.5763400  44.8626490  19.4779110  59.9246400  44.4573490
  12.5314540  53.7948520  40.2458620  12.2461460  53.4304190  41.0837240
  12.4693400  53.0628980  39.6321760  17.4573420  58.0913470  46.4349360
  17.1530490  58.9705450  46.6599720  18.4119880  58.1513260  46.4706800
  15.9855210  62.2974460  37.0316210  15.2117470  61.7572080  36.8714930
  16.7149840  61.7781070  36.6933970  26.7443190  61.2939820  42.8242600
  27.4642310  61.7895110  42.4338710  26.5425010  60.6157710  42.1796470
  22.2053130  52.6877780  36.9671990  21.3917740  52.1890950  36.8917300
  22.0115080  53.5276030  36.5508340  22.1261990  61.3648880  48.7111600
  22.0599300  60.4444550  48.4569190  21.4967130  61.4624320  49.4256240
  24.9201520  57.0597430  35.2634150  25.8081140  57.3714660  35.0885490
  24.8906610  56.1869680  34.8714730  16.0292610  61.9654840  40.6695020
  16.5471280  61.1623100  40.6151910  15.5776630  61.9033980  41.5111850
  20.9162110  63.2321120  35.9422320  21.2577810  63.9763350  35.4465640
  20.0874820  63.5452240  36.3047150  13.5137150  58.9316210  47.5820720
  13.1552090  59.5970060  48.1694060  13.2191710  58.0999760  47.9533340
  16.7150270  59.3900450  50.4660270  16.4150410  59.5357630  49.5688090
  17.4861510  58.8305740  50.3733660  22.0578720  64.1869450  48.4615400
  22.0723260  63.2550410  48.2434310  21.3503820  64.2729210  49.1005170
  27.1915790  58.3709270  34.7314010  27.1079510  58.8023490  33.8810450
  27.9109980  58.8307620  35.1640830  28.2689930  60.8276790  47.8083980
  27.5438120  61.4205570  47.6113370  28.7965390  60.8200330  47.0097350
  28.2203040  65.2251530  37.4596140  27.5779200  64.5707150  37.7339860
  27.8333700  65.6306620  36.6836810  23.7989520  62.5536960  41.3067830
  24.1513340  61.9565090  40.6469200  22.9151850  62.2281190  41.4776080
  19.8852800  63.3134650  38.7138240  20.5723930  63.8603860  39.0945830
  19.0985220  63.8575380  38.7487850  12.0245200  58.9307470  34.2055320
  12.8940050  59.2132270  34.4891240  11.5335520  59.7443340  34.0904130
  19.1880010  60.3180680  38.3263600  19.6442790  61.1285930  38.5523790
  18.8368220  60.0003820  39.1582090  21.4912620  65.8287020  45.5555900
  22.1354840  66.0346400  46.2329320  21.8542060  65.0675420  45.1026750
  15.0891790  50.6618330  38.7986120  14.9606420  50.6536230  39.7471040
  14.2653810  51.0001420  38.4477130  22.7644700  63.8319370  44.2733350
  23.4066930  63.1312530  44.3865520  23.2894050  64.6117810  44.0930240
  26.6100420  64.1167990  33.9972490  26.3838000  63.3998430  34.5897130
  26.2196620  63.8680430  33.1594240  12.3916450  68.1434850  34.7716950
  12.7514090  68.7424190  34.1174220  12.2508790  68.6894740  35.5451980
  12.0885720  52.4209450  48.2592820  11.3744240  52.6206370  48.8645430
  12.5080760  51.6449020  48.6307620  26.1916670  62.0339930  35.6586650
  25.9038370  62.4952620  36.4464530  26.9868840  61.5737700  35.9270870
  12.3758310  66.4089710  49.2459350  12.4849430  65.4684450  49.1054740
  11.7238870  66.6744460  48.5973080  20.3670900  64.6805600  50.6457470
  20.0467770  63.9614840  51.1903160  19.6929260  65.3560670  50.7193530
  18.4085070  65.5266050  35.5890620  18.3995170  66.2595740  34.9735130
  17.4883430  65.2797630  35.6817580  14.0091710  60.7480940  36.3337380
  13.4019660  61.4879840  36.3432680  14.4841060  60.8380300  35.5075580
  23.5824500  54.9131760  46.0094270  23.9505320  54.0926970  46.3373840
  22.7222700  54.9733650  46.4249920  26.9486530  53.8688700  36.8181830
  26.3199690  53.9734370  36.1040060  26.4538450  54.0885480  37.6075710
  21.3944670  65.5894290  34.2515810  21.4956650  65.3858280  33.3217790
  20.4946410  65.3352570  34.4563590  18.9170560  56.1474650  38.2339710
  18.2086710  56.6160990  38.6753320  19.2015040  55.4896660  38.8684900
  20.5426490  57.5671350  46.2332240  21.0411740  58.0417170  46.8984090
  20.6849440  56.6434870  46.4402270  22.9485990  52.8725310  39.6735500
  22.8253770  52.8911440  38.7245010  23.8970550  52.9204250  39.7933900
  20.0362780  68.1080610  38.9463480  20.2904280  68.0702000  38.0242850
  19.0875260  67.9813940  38.9391730  17.1205580  54.4559730  35.6090420
  17.9696110  54.8929880  35.5430610  16.7536850  54.7679990  36.4362480
  27.7493350  53.7839310  47.0760630  27.2466950  54.5244710  47.4154440
  28.5650010  54.1723310  46.7597420  26.0415360  59.0272490  40.5221990
  25.1005500  59.0422720  40.6969680  26.3559430  58.2408450  40.9682290
  16.0197000  60.7092090  34.0825950  16.7860270  60.5973450  34.6451380
  16.0971690  60.0130060  33.4302720  14.7143760  58.1417160  34.7658840
  14.7947350  57.1944670  34.8776240  15.6063510  58.4724040  34.8719500
  28.0440940  66.1981340  42.1976250  28.1688360  67.0212510  42.6700060
  28.9106500  65.9872070  41.8500400  15.5158470  68.2912550  41.8693380
  16.2520950  67.7428010  42.1401950  15.8999390  69.1568560  41.7299370
  12.4003950  64.3586120  37.7434890  11.4743730  64.6007260  37.7340300
  12.8660380  65.1860380  37.6219640  14.5216750  67.4758620  51.0578960
  15.3229480  67.7970670  51.4714360  14.0068570  67.1154200  51.7798870
  18.6260780  67.4642860  33.6918950  19.4189390  67.7531690  33.2400740
  18.1065130  67.0335030  33.0131430  23.3581380  63.5838490  51.0054370
  22.7519540  63.6070090  50.2650120  23.0535490  62.8521530  51.5421620
  24.7881750  67.3118780  49.6163780  25.7403500  67.2276800  49.5664020
  24.6409970  67.9760490  50.2897570  27.6790950  66.6912990  35.1155690
  27.3932460  66.2778130  34.3009870  27.4810500  67.6200700  34.9956210
  12.2414560  59.9632080  50.0015010  12.7453580  59.3839360  50.5731240
  11.5021980  60.2472310  50.5391380  19.1438180  62.6846270  33.5561300
  19.0388820  62.0698620  34.2822680  18.9762400  62.1612160  32.7724310
  19.2952500  61.3703070  49.5350530  18.5298170  61.9388070  49.4505200
  19.4768460  61.0779280  48.6418760  22.3840910  61.7466300  34.1603290
  21.8351010  62.1935600  34.8046030  23.0060170  61.2415550  34.6840960
  26.4375850  63.1008400  50.0925550  27.1785320  63.4384160  49.5893010
  25.6748530  63.2700460  49.5395320  14.2737640  58.1061670  50.8965080
  14.3142980  57.8075540  51.8050310  15.1283140  58.5069280  50.7372600
  18.0516030  60.7057220  36.0568590  18.4732450  60.5397090  36.8999980
  18.1766870  59.8957450  35.5623730  16.2143450  56.6853770  48.8639570
  15.6839910  56.1944720  48.2362910  16.8831520  57.1137970  48.3297500
  20.5643670  59.7294830  33.3045690  21.0849330  59.0143850  32.9386840
  21.2112070  60.3680700  33.6046200  25.1121510  61.1523230  48.6280760
  25.5262530  61.3068310  49.4771180  24.1772510  61.2778450  48.7906540
  25.5843680  58.4919390  50.6319910  26.1664450  57.7371710  50.5440390
  25.7605450  59.0226830  49.8551390  16.7015750  53.6516140  48.9436860
  16.6072620  53.0336890  48.2187730  16.1213140  54.3782430  48.7166770
  19.4677190  52.2089380  45.9764250  19.0194490  52.2313640  45.1309800
  18.8342390  51.8108400  46.5734550  19.8736740  61.1043710  46.5976690
  20.2924850  61.9476440  46.4252930  18.9545370  61.2415750  46.3683470
  22.2100640  58.8359890  47.9814530  22.3296850  58.2401030  48.7209370
  23.0694640  58.8729580  47.5615830  24.5488540  59.3897080  46.5577040
  24.0223760  59.9139700  45.9542180  24.8919880  60.0224470  47.1886770
  16.9474930  56.7790450  33.0026750  16.7463990  55.9157810  33.3640090
  16.7766980  56.6923810  32.0648350  17.7244160  67.4096720  47.7134420
  17.1865250  68.1342780  47.3943120  17.9778120  66.9327060  46.9231760
  18.9769410  55.3781240  49.2390350  19.5669100  55.0697090  49.9268170
  18.1589650  54.9060990  49.3950250  23.7962840  54.9947050  49.4723370
  23.1078360  54.3328590  49.4073360  24.5168860  54.5485320  49.9171830
  15.7457730  53.8791070  32.9904630  16.0483630  53.8858500  32.0823780
  16.4852320  53.5288930  33.4872290  20.5806370  68.6447930  47.9721070
  20.5065070  69.5483070  48.2793440  19.6785210  68.3259830  47.9443140
  18.9642660  52.8225690  33.9760830  18.6164660  52.1449680  33.3963280
  19.1655430  52.3615200  34.7904220  21.1291700  67.8106440  35.5947430
  22.0242490  68.1491410  35.6166190  21.1609330  67.0885850  34.9671710
  14.7687860  63.1833490  33.8234430  15.2062730  63.7263160  34.4792010
  15.2535590  62.3580440  33.8330770  11.9833660  65.9722520  41.2754690
  12.3136670  65.1043580  41.0433330  12.4124660  66.1781040  42.1059650
  16.5795580  64.3031530  38.9356660  16.2791120  64.1796500  39.8360570
  16.4733070  63.4440120  38.5272390  12.4723870  66.8393110  44.0136320
  12.0354860  67.0193910  44.8460470  13.0401550  67.5967730  43.8718040
  28.1086050  66.3410110  48.3013630  27.5088040  66.4002670  47.5577550
  28.2379950  65.4015090  48.4310480  29.3487500  64.0827930  33.6383340
  28.5180460  64.1504580  34.1090570  29.5259330  64.9732050  33.3350200
  28.8043960  60.8275410  36.1417540  29.5662870  61.3972060  36.2477230
  28.8198330  60.2602610  36.9125850  12.3048300  59.3513340  40.3725200
  11.6497140  59.0824980  39.7284900  13.1426250  59.2417820  39.9227180
  29.8103930  61.6825510  40.9859470  30.1812760  60.8992830  40.5795440
  30.4505860  62.3714610  40.8076770  26.7937690  63.0662090  46.3989790
  25.9797530  63.4959250  46.6615580  27.2011890  63.6780500  45.7858840
  28.8563130  61.1209780  33.2990060  29.1311970  62.0288660  33.1709280
  28.6673870  61.0572310  34.2352050  25.2538740  54.1454630  34.5943690
  25.6723620  53.9585610  33.7540350  24.9474800  53.2933680  34.9046620
  28.7528470  59.0578770  38.2919490  28.3772070  58.2906700  37.8600780
  28.0231590  59.4401470  38.7794420  13.3424230  59.7365910  44.9128540
  13.7097270  59.6493310  45.7924560  12.7735050  58.9732460  44.8135400
  28.1428090  58.2050290  47.9259010  27.9114180  57.9763040  47.0256960
  28.4032640  59.1249840  47.8803900  12.8940230  56.6475000  48.8186960
  11.9996280  56.6141760  49.1580670  13.4337780  56.8461790  49.5838210
  26.5816160  53.4306720  50.7038710  27.4586340  53.4390120  51.0872710
  26.5937000  52.6937560  50.0931060  11.5186380  56.5612270  36.3150530
  10.6150460  56.8242470  36.1402190  12.0027000  56.8323440  35.5350490
  28.0279430  57.2836260  41.5926730  28.5516910  56.7898910  40.9616900
  28.6138850  57.4186620  42.3374300  28.2069150  57.3676130  45.1146280
  27.2571860  57.3339670  45.2291270  28.3882160  58.2776240  44.8796050
  14.0613590  55.6177810  34.2244910  14.7705290  55.1961030  33.7392190
  13.3453530  55.6853040  33.5928260  13.7087750  51.6717140  33.2647560
  14.4315880  52.2126080  33.5828780  13.9812270  51.3980560  32.3889100
  27.5179400  56.5409610  37.5319140  28.0138520  56.3080480  38.3168020
  27.3195470  55.7021450  37.1156780  13.3979940  50.9223330  43.1670180
  14.0456130  50.3720710  42.7265340  13.8181780  51.1766480  43.9885990
  28.9466560  55.1770560  40.0656820  28.8365840  55.0226600  41.0039090
  29.7074150  54.6491500  39.8232230  26.8513740  67.8180690  39.9258060
  27.4472810  67.4965260  39.2492480  27.1091890  67.3452510  40.7171330
  13.1511940  51.0779000  45.9095500  12.8026760  51.5342820  46.6753680
  12.8199640  50.1836130  45.9917930  14.7576310  64.2498600  50.0748690
  14.7145940  63.8791510  50.9563150  14.8887320  65.1876170  50.2150510
  18.4582340  65.8058190  45.6758410  18.2173700  66.0732750  44.7888930
  19.3984980  65.9763920  45.7309270  20.6636760  52.2690880  49.4314920
  20.6025650  52.8612710  50.1810330  21.6037140  52.1616840  49.2865180
  23.3011320  51.9260940  49.0707210  23.9151730  52.2440230  48.4088290
  23.8460880  51.4409530  49.6903070  29.7186500  67.8252570  46.4769050
  29.2244780  68.2221440  45.7596180  29.1099790  67.2001780  46.8706330
  13.8232580  50.6055200  49.1846270  14.3715570  50.4243250  48.4212380
  13.8887890  49.8149310  49.7202580  14.5964340  67.1960850  47.1946470
  14.0024660  67.0645550  47.9336510  14.5888180  66.3598990  46.7288570
  24.0419360  50.4893080  45.3976500  23.1679200  50.8228190  45.1949430
  23.9330110  50.0166260  46.2228370  24.9491340  52.6963950  46.7818220
  24.6204700  51.8815710  46.4019950  25.8973640  52.6533760  46.6583910
  27.4025950  68.4675990  43.7555790  26.9428920  69.2191800  43.3813810
  26.7738410  67.7482460  43.6970590  14.2276570  64.5619230  46.1454510
  13.5010630  63.9424520  46.0780460  14.2885720  64.9559840  45.2752590
  17.8321670  66.7764230  42.9303920  18.3486690  66.1651590  42.4052180
  18.4819050  67.2793010  43.4214930  20.5717170  67.6672720  43.7572900
  20.8594980  67.4127020  42.8805910  21.0840390  67.1150080  44.3478470
  21.7894180  51.4062920  44.3369410  21.0065970  51.8808420  44.6166170
  21.4957110  50.5017750  44.2282590  26.3415250  52.1086020  42.3818500
  26.7823340  52.0531120  41.5340100  26.0722840  53.0244030  42.4528680
  28.2053820  51.7401260  40.3927320  28.1442220  50.7962480  40.2458340
  28.9845850  51.8481350  40.9380780  12.5106570  67.8793620  39.3551270
  12.3428610  67.2464300  40.0533160  11.6441080  68.0853020  39.0045460
  13.1334590  51.7110400  36.8583130  13.8913950  51.8239280  36.2847160
  12.6711760  52.5479600  36.8126560  19.6748400  53.8249670  39.8485440
  18.8622910  53.4506560  39.5081320  20.1790040  53.0694750  40.1506630
  24.1773380  50.4892120  41.0868510  24.7802750  51.0612330  41.5617030
  23.4366370  51.0531560  40.8642410  14.1169270  66.5726850  36.8001410
  13.5916890  66.9534880  36.0963370  14.0413850  67.1977620  37.5211120
  15.5059740  52.2374450  35.3985100  16.0352500  51.4504250  35.2693050
  16.1388060  52.9165640  35.6320630  17.6997580  51.9749590  38.4530490
  17.0700320  51.2736900  38.6200620  17.1602720  52.7353720  38.2363650
  20.6389530  68.5888820  51.1241100  21.5656840  68.3533090  51.1677060
  20.6239960  69.4160820  50.6427130  28.8734590  68.1314390  38.1215350
  29.0486780  67.4452130  37.4776270  28.1756160  68.6561440  37.7292020
  17.8253140  51.2533570  50.8882980  17.5437410  51.7567170  50.1243800
  18.2072840  50.4555320  50.5225110  16.7162240  68.5209230  35.6750660
  17.4481060  68.2368510  35.1274550  16.9755910  68.2822510  36.5650040
  15.8777030  64.6373960  35.6796990  15.2485910  65.1059060  36.2282820
  15.9924860  63.7923180  36.1143180  27.2067090  67.8158680  50.9482140
  27.9992410  67.3207910  50.7408100  27.5000240  68.4948820  51.5557750
  23.3326750  58.6879620  21.8298190  23.2520800  57.7734230  21.5589900
  22.9191170  59.1846690  21.1237900  21.4644790  60.4658640  23.7107460
  20.6886890  59.9859080  24.0006030  22.1157720  59.7864290  23.5363620
  15.4810620  60.7778450  24.5883220  14.6495500  60.5227160  24.9879730
  16.0891600  60.8489220  25.3241140  25.4852220  64.8718830  22.4906590
  25.0233750  64.1006070  22.8193760  26.2977770  64.8984900  22.9959040
  15.4611880  64.8118540  24.7841240  15.7639920  63.9216280  24.6051460
  16.2055470  65.3688760  24.5563490  13.8902570  55.7380340  18.3725610
  13.0019270  56.0796310  18.2705490  14.1743760  55.5380660  17.4806440
  11.8535580  58.3385990  24.2565310  12.4251690  57.5708190  24.2568950
  11.8537120  58.6374750  23.3471920  21.7115530  67.1576840  22.1110580
  21.0926970  67.6134340  21.5405020  22.5667310  67.3128300  21.7100280
  20.9053780  63.1415830  23.7177620  20.8362060  62.2005770  23.5566750
  21.6673640  63.2317240  24.2900190  13.0960450  53.7470350  26.0434240
  12.9163290  52.8496100  26.3237000  12.6940530  54.2942220  26.7181190
  21.9358950  55.9486210  23.9446550  22.3123770  55.0758090  23.8320220
  21.8378460  56.2844910  23.0536990  16.0663960  54.3211840  19.4063990
  16.1730710  55.2215570  19.7132750  15.1556320  54.2729810  19.1158640
  25.7183070  53.4436650  20.8774890  26.5392690  52.9533220  20.9200370
  25.7517150  54.0334310  21.6306730  13.7147120  56.2430850  24.6516580
  14.3957230  56.5069220  25.2703980  13.3995170  55.4031720  24.9854590
  17.9071690  57.2898210  23.7389170  18.4149910  57.7879180  24.3794190
  18.4384930  56.5133410  23.5628530  16.1907790  51.9296770  28.0052590
  16.1926230  52.4469160  27.1998490  15.3612100  51.4526950  27.9822520
  22.5778880  62.0416080  19.5042490  21.9596150  62.5065530  18.9405210
  23.0902130  62.7343560  19.9212000  17.4410640  61.5691950  26.1826090
  17.1080020  62.1960870  26.8247160  17.6177320  62.0953830  25.4027760
  25.9544550  55.3837030  23.6502430  25.2500120  55.6721920  24.2305540
  26.3156710  56.1937140  23.2901990  15.8723120  53.6406730  26.0123040
  16.2139930  54.4848780  25.7176910  14.9338930  53.7890470  26.1288380
  16.6529740  63.5372750  27.9975270  17.2703740  64.2123830  27.7159720
  15.7922860  63.9460730  27.9062770  11.9462080  62.7272610  16.8782120
  11.5690060  63.2159710  16.1467020  12.2035150  63.3997890  17.5088650
  27.5707330  65.0012160  25.9129910  26.8870850  65.6711270  25.9046580
  28.1101620  65.1992810  25.1474770  29.0231470  54.8291820  24.0411640
  28.0756380  54.8630800  24.1727070  29.3481460  55.6430770  24.4261000
  19.5551010  51.1289000  22.3367630  19.8625990  50.5735890  21.6203130
  18.6251710  51.2633460  22.1540620  25.1066070  66.8456290  24.6275090
  25.1193230  66.4418580  23.7597350  24.5541290  67.6203580  24.5236520
  26.4011490  63.5672510  19.7165260  26.2907820  62.6246840  19.8414680
  26.3979740  63.9288150  20.6028020  24.5051510  61.7486130  25.9557700
  24.9220300  61.5346240  25.1211160  25.2291330  62.0058920  26.5266320
  21.9431770  59.1937830  19.0727750  21.0161050  59.1275210  19.3016220
  22.0956590  60.1317960  18.9582990  21.9300850  55.4654830  16.0694910
  20.9904520  55.6268790  16.1547370  22.2484110  56.1840510  15.5230900
  28.4513610  60.1473350  26.0473940  27.6232240  60.2166440  25.5724070
  29.0464090  60.7327660  25.5789770  25.9729060  60.7558130  19.5763000
  25.3541480  60.4177680  18.9289300  25.9553510  60.1117890  20.2842190
  25.4155620  56.9342670  26.9928810  25.0026800  57.7596380  27.2468800
  24.6831570  56.3487710  26.8005170  17.5488410  59.7202570  21.8547480
  17.1445410  59.0079820  21.3593380  17.6351530  59.3755810  22.7435520
  18.0170110  63.4070130  24.0186690  17.7198400  62.8015600  23.3394470
  18.9669930  63.4447440  23.9076050  16.2617030  56.4945780  25.6346520
  16.8131620  56.6041120  24.8599770  16.7760540  56.8683380  26.3501750
  26.1055720  66.9802000  27.6809790  25.6286280  67.7874190  27.4882400
  25.4217510  66.3280330  27.8336000  17.1088540  63.1451820  30.6694490
  16.2117070  63.3691790  30.9167890  17.1341410  63.2686760  29.7205890
  24.1493760  59.9944940  16.5835750  24.5887040  59.1567370  16.4373570
  24.8622180  60.6274340  16.6699890  15.9359760  60.0165140  29.2451860
  15.7967530  60.8887940  29.6139260  15.0541120  59.6737950  29.0999800
  22.2589140  64.9341010  20.5516990  22.6985050  65.6765340  20.1372380
  22.1976030  65.1767580  21.4755950  17.7340110  65.9586840  31.4537010
  17.7055540  66.3629790  30.5865440  17.5705080  65.0297200  31.2908610
  27.7310900  51.2487750  14.8976790  27.4183560  51.3414580  15.7975860
  28.4923370  51.8268780  14.8474220  14.2493040  58.6147550  19.3554130
  14.1290640  59.3409640  18.7435400  13.9393930  57.8450460  18.8782040
  29.6854930  66.7413940  32.7501180  30.1614650  67.2196830  33.4290260
  30.3062090  66.6731430  32.0246680  11.8878410  61.7862690  25.1622770
  11.9658830  61.9211460  24.2178490  12.5020090  61.0778580  25.3550890
  13.1326040  63.4862880  21.5728950  12.7254120  63.6277470  20.7182550
  14.0239050  63.2023040  21.3700160  29.0888180  63.9326790  29.9101190
  29.2151240  63.6938670  28.9918370  29.1309560  63.1011330  30.3823270
  22.9504920  67.6354790  28.4796000  23.4649590  67.5462800  29.2818430
  22.1074000  67.9814490  28.7723910  24.9259320  67.9210130  17.9080000
  24.7660460  67.6313070  18.8061830  24.7606030  67.1450260  17.3725230
  17.4047700  67.7008660  19.6851620  17.2290180  66.7844200  19.4719420
  16.5503440  68.0595950  19.9249420  24.6285450  65.4297690  16.4678000
  23.9350610  65.4274980  15.8080280  25.3708310  65.0057010  16.0372170
  24.1935380  67.0560400  20.5426490  24.6492330  66.2749780  20.8565110
  24.5327900  67.7667220  21.0867670  28.9412190  55.9859250  30.8750930
  28.3256460  56.4938920  30.3466390  28.6208610  55.0857580  30.8176870
  11.9437930  62.8276860  27.7017230  12.1068970  62.3582220  26.8836600
  12.4090380  62.3200420  28.3666070  16.7156700  51.9582620  22.7377800
  16.2724850  52.7392160  22.4062320  17.2741690  52.2812510  23.4448740
  21.0026510  54.8251140  28.3413120  20.5405880  55.0334160  29.1533060
  20.6004620  54.0110490  28.0383790  23.0980730  57.5461840  31.5708570
  23.4234140  56.7125590  31.2310800  23.8861060  58.0690360  31.7186900
  19.8315520  51.5793320  17.6183630  19.2069700  51.5753190  18.3436940
  19.7445640  50.7124280  17.2219600  18.7532600  52.5029950  24.5967400
  19.0504930  53.4092780  24.5159420  19.3018160  52.0148730  23.9826970
  16.5070920  57.0816190  20.4659050  16.2811840  56.8653360  21.3705670
  15.7263450  57.5144650  20.1205020  23.7368680  57.0879560  19.0649700
  23.1377570  57.8115360  18.8813320  24.2848290  57.0256340  18.2826150
  18.9470130  57.9801770  31.1319320  18.8513730  57.0396500  30.9819720
  19.7902110  58.2016840  30.7367390  22.3433550  55.7243100  21.0952980
  22.7363120  56.0415300  20.2821670  22.7050400  54.8454980  21.2097500
  14.0780670  54.3915440  29.2853100  13.6844060  55.2390650  29.4925880
  13.3899070  53.7541810  29.4761740  20.6525720  54.4750410  32.3549840
  19.9624040  54.2822610  32.9895930  21.3958020  54.7585050  32.8874140
  11.3797720  52.3143900  23.3183180  11.0910770  52.8846760  24.0308160
  12.1243480  51.8348350  23.6814410  11.5667950  56.2564020  14.5285900
  11.4842620  57.1994780  14.6700890  11.2151010  56.1138930  13.6498250
  22.9288690  58.3148850  25.1903760  22.1969810  58.8235660  25.5393860
  22.5313030  57.4978830  24.8892540  19.3666080  54.9903050  23.5956250
  19.3702140  54.5493000  22.7460790  20.2617200  55.3120380  23.7028070
  15.2168460  54.8729540  22.5550460  14.8768510  55.3504770  23.3117510
  14.4545780  54.4194660  22.1951560  19.4286230  55.9915130  16.5863010
  19.5499050  55.9501610  17.5348830  19.0434740  56.8539280  16.4309740
  23.3914600  53.7682530  24.6026700  23.4087340  54.2191180  25.4468550
  23.1430180  52.8688170  24.8160140  18.4407730  58.3016270  15.9846310
  17.8724630  57.8534520  15.3582220  19.1496730  58.6609050  15.4511460
  13.5176910  62.2028290  29.8613040  13.1331700  61.5621960  30.4596000
  13.8289100  62.9064410  30.4307770  19.6674050  59.0504830  25.3421660
  20.0344180  58.5763400  26.0883000  19.4779110  59.9246400  25.6830000
  12.5314540  53.7948520  21.4715130  12.2461460  53.4304190  22.3093750
  12.4693400  53.0628980  20.8578270  17.4573420  58.0913470  27.6605870
  17.1530490  58.9705450  27.8856230  18.4119880  58.1513260  27.6963310
  15.9855210  62.2974460  18.2572720  15.2117470  61.7572080  18.0971440
  16.7149840  61.7781070  17.9190480  26.7443190  61.2939820  24.0499110
  27.4642310  61.7895110  23.6595220  26.5425010  60.6157710  23.4052980
  22.2053130  52.6877780  18.1928500  21.3917740  52.1890950  18.1173810
  22.0115080  53.5276030  17.7764850  22.1261990  61.3648880  29.9368110
  22.0599300  60.4444550  29.6825700  21.4967130  61.4624320  30.6512750
  24.9201520  57.0597430  16.4890660  25.8081140  57.3714660  16.3142000
  24.8906610  56.1869680  16.0971240  16.0292610  61.9654840  21.8951530
  16.5471280  61.1623100  21.8408420  15.5776630  61.9033980  22.7368360
  20.9162110  63.2321120  17.1678830  21.2577810  63.9763350  16.6722150
  20.0874820  63.5452240  17.5303660  13.5137150  58.9316210  28.8077230
  13.1552090  59.5970060  29.3950570  13.2191710  58.0999760  29.1789850
  16.7150270  59.3900450  31.6916780  16.4150410  59.5357630  30.7944600
  17.4861510  58.8305740  31.5990170  22.0578720  64.1869450  29.6871910
  22.0723260  63.2550410  29.4690820  21.3503820  64.2729210  30.3261680
  27.1915790  58.3709270  15.9570520  27.1079510  58.8023490  15.1066960
  27.9109980  58.8307620  16.3897340  28.2689930  60.8276790  29.0340490
  27.5438120  61.4205570  28.8369880  28.7965390  60.8200330  28.2353860
  28.2203040  65.2251530  18.6852650  27.5779200  64.5707150  18.9596370
  27.8333700  65.6306620  17.9093320  23.7989520  62.5536960  22.5324340
  24.1513340  61.9565090  21.8725710  22.9151850  62.2281190  22.7032590
  19.8852800  63.3134650  19.9394750  20.5723930  63.8603860  20.3202340
  19.0985220  63.8575380  19.9744360  12.0245200  58.9307470  15.4311830
  12.8940050  59.2132270  15.7147750  11.5335520  59.7443340  15.3160640
  19.1880010  60.3180680  19.5520110  19.6442790  61.1285930  19.7780300
  18.8368220  60.0003820  20.3838600  21.4912620  65.8287020  26.7812410
  22.1354840  66.0346400  27.4585830  21.8542060  65.0675420  26.3283260
  15.0891790  50.6618330  20.0242630  14.9606420  50.6536230  20.9727550
  14.2653810  51.0001420  19.6733640  22.7644700  63.8319370  25.4989860
  23.4066930  63.1312530  25.6122030  23.2894050  64.6117810  25.3186750
  26.6100420  64.1167990  15.2229000  26.3838000  63.3998430  15.8153640
  26.2196620  63.8680430  14.3850750  24.5382320  64.6314270  28.7025920
  24.8738560  65.2180960  29.3803840  23.6182660  64.5006980  28.9323710
  12.3916450  68.1434850  15.9973460  12.7514090  68.7424190  15.3430730
  12.2508790  68.6894740  16.7708490  12.0885720  52.4209450  29.4849330
  11.3744240  52.6206370  30.0901940  12.5080760  51.6449020  29.8564130
  26.1916670  62.0339930  16.8843160  25.9038370  62.4952620  17.6721040
  26.9868840  61.5737700  17.1527380  12.3758310  66.4089710  30.4715860
  12.4849430  65.4684450  30.3311250  11.7238870  66.6744460  29.8229590
  20.3670900  64.6805600  31.8713980  20.0467770  63.9614840  32.4159670
  19.6929260  65.3560670  31.9450040  18.4085070  65.5266050  16.8147130
  18.3995170  66.2595740  16.1991640  17.4883430  65.2797630  16.9074090
  14.0091710  60.7480940  17.5593890  13.4019660  61.4879840  17.5689190
  14.4841060  60.8380300  16.7332090  23.5824500  54.9131760  27.2350780
  23.9505320  54.0926970  27.5630350  22.7222700  54.9733650  27.6506430
  26.9486530  53.8688700  18.0438340  26.3199690  53.9734370  17.3296570
  26.4538450  54.0885480  18.8332220  21.3944670  65.5894290  15.4772320
  21.4956650  65.3858280  14.5474300  20.4946410  65.3352570  15.6820100
  18.9170560  56.1474650  19.4596220  18.2086710  56.6160990  19.9009830
  19.2015040  55.4896660  20.0941410  20.5426490  57.5671350  27.4588750
  21.0411740  58.0417170  28.1240600  20.6849440  56.6434870  27.6658780
  22.9485990  52.8725310  20.8992010  22.8253770  52.8911440  19.9501520
  23.8970550  52.9204250  21.0190410  20.0362780  68.1080610  20.1719990
  20.2904280  68.0702000  19.2499360  19.0875260  67.9813940  20.1648240
  17.1205580  54.4559730  16.8346930  17.9696110  54.8929880  16.7687120
  16.7536850  54.7679990  17.6618990  26.0415360  59.0272490  21.7478500
  25.1005500  59.0422720  21.9226190  26.3559430  58.2408450  22.1938800
  16.0197000  60.7092090  15.3082460  16.7860270  60.5973450  15.8707890
  16.0971690  60.0130060  14.6559230  14.7143760  58.1417160  15.9915350
  14.7947350  57.1944670  16.1032750  15.6063510  58.4724040  16.0976010
  28.0440940  66.1981340  23.4232760  28.1688360  67.0212510  23.8956570
  28.9106500  65.9872070  23.0756910  15.5158470  68.2912550  23.0949890
  16.2520950  67.7428010  23.3658460  15.8999390  69.1568560  22.9555880
  12.4003950  64.3586120  18.9691400  11.4743730  64.6007260  18.9596810
  12.8660380  65.1860380  18.8476150  14.5216750  67.4758620  32.2835470
  15.3229480  67.7970670  32.6970870  14.0068570  67.1154200  33.0055380
  18.6260780  67.4642860  14.9175460  19.4189390  67.7531690  14.4657250
  18.1065130  67.0335030  14.2387940  23.3581380  63.5838490  32.2310880
  22.7519540  63.6070090  31.4906630  23.0535490  62.8521530  32.7678130
  24.7881750  67.3118780  30.8420290  25.7403500  67.2276800  30.7920530
  24.6409970  67.9760490  31.5154080  27.6790950  66.6912990  16.3412200
  27.3932460  66.2778130  15.5266380  27.4810500  67.6200700  16.2212720
  12.2414560  59.9632080  31.2271520  12.7453580  59.3839360  31.7987750
  11.5021980  60.2472310  31.7647890  19.1438180  62.6846270  14.7817810
  19.0388820  62.0698620  15.5079190  18.9762400  62.1612160  13.9980820
  19.2952500  61.3703070  30.7607040  18.5298170  61.9388070  30.6761710
  19.4768460  61.0779280  29.8675270  22.3840910  61.7466300  15.3859800
  21.8351010  62.1935600  16.0302540  23.0060170  61.2415550  15.9097470
  26.4375850  63.1008400  31.3182060  27.1785320  63.4384160  30.8149520
  25.6748530  63.2700460  30.7651830  14.2737640  58.1061670  32.1221590
  14.3142980  57.8075540  33.0306820  15.1283140  58.5069280  31.9629110
  18.0516030  60.7057220  17.2825100  18.4732450  60.5397090  18.1256490
  18.1766870  59.8957450  16.7880240  16.2143450  56.6853770  30.0896080
  15.6839910  56.1944720  29.4619420  16.8831520  57.1137970  29.5554010
  20.5643670  59.7294830  14.5302200  21.0849330  59.0143850  14.1643350
  21.2112070  60.3680700  14.8302710  25.1121510  61.1523230  29.8537270
  25.5262530  61.3068310  30.7027690  24.1772510  61.2778450  30.0163050
  25.5843680  58.4919390  31.8576420  26.1664450  57.7371710  31.7696900
  25.7605450  59.0226830  31.0807900  16.7015750  53.6516140  30.1693370
  16.6072620  53.0336890  29.4444240  16.1213140  54.3782430  29.9423280
  19.4677190  52.2089380  27.2020760  19.0194490  52.2313640  26.3566310
  18.8342390  51.8108400  27.7991060  19.8736740  61.1043710  27.8233200
  20.2924850  61.9476440  27.6509440  18.9545370  61.2415750  27.5939980
  22.2100640  58.8359890  29.2071040  22.3296850  58.2401030  29.9465880
  23.0694640  58.8729580  28.7872340  24.5488540  59.3897080  27.7833550
  24.0223760  59.9139700  27.1798690  24.8919880  60.0224470  28.4143280
  16.9474930  56.7790450  14.2283260  16.7463990  55.9157810  14.5896600
  16.7766980  56.6923810  13.2904860  17.7244160  67.4096720  28.9390930
  17.1865250  68.1342780  28.6199630  17.9778120  66.9327060  28.1488270
  18.9769410  55.3781240  30.4646860  19.5669100  55.0697090  31.1524680
  18.1589650  54.9060990  30.6206760  23.7962840  54.9947050  30.6979880
  23.1078360  54.3328590  30.6329870  24.5168860  54.5485320  31.1428340
  24.4263240  51.5898680  16.7570140  24.7065530  50.7466580  17.1129560
  23.6528970  51.8221790  17.2708890  15.7457730  53.8791070  14.2161140
  16.0483630  53.8858500  13.3080290  16.4852320  53.5288930  14.7128800
  20.5806370  68.6447930  29.1977580  20.5065070  69.5483070  29.5049950
  19.6785210  68.3259830  29.1699650  18.9642660  52.8225690  15.2017340
  18.6164660  52.1449680  14.6219790  19.1655430  52.3615200  16.0160730
  21.1291700  67.8106440  16.8203940  22.0242490  68.1491410  16.8422700
  21.1609330  67.0885850  16.1928220  14.7687860  63.1833490  15.0490940
  15.2062730  63.7263160  15.7048520  15.2535590  62.3580440  15.0587280
  11.9833660  65.9722520  22.5011200  12.3136670  65.1043580  22.2689840
  12.4124660  66.1781040  23.3316160  16.5795580  64.3031530  20.1613170
  16.2791120  64.1796500  21.0617080  16.4733070  63.4440120  19.7528900
  12.4723870  66.8393110  25.2392830  12.0354860  67.0193910  26.0716980
  13.0401550  67.5967730  25.0974550  28.1086050  66.3410110  29.5270140
  27.5088040  66.4002670  28.7834060  28.2379950  65.4015090  29.6566990
  29.3487500  64.0827930  14.8639850  28.5180460  64.1504580  15.3347080
  29.5259330  64.9732050  14.5606710  28.8043960  60.8275410  17.3674050
  29.5662870  61.3972060  17.4733740  28.8198330  60.2602610  18.1382360
  12.3048300  59.3513340  21.5981710  11.6497140  59.0824980  20.9541410
  13.1426250  59.2417820  21.1483690  29.8103930  61.6825510  22.2115980
  30.1812760  60.8992830  21.8051950  30.4505860  62.3714610  22.0333280
  26.7937690  63.0662090  27.6246300  25.9797530  63.4959250  27.8872090
  27.2011890  63.6780500  27.0115350  28.8563130  61.1209780  14.5246570
  29.1311970  62.0288660  14.3965790  28.6673870  61.0572310  15.4608560
  25.2538740  54.1454630  15.8200200  25.6723620  53.9585610  14.9796860
  24.9474800  53.2933680  16.1303130  28.7528470  59.0578770  19.5176000
  28.3772070  58.2906700  19.0857290  28.0231590  59.4401470  20.0050930
  13.3424230  59.7365910  26.1385050  13.7097270  59.6493310  27.0181070
  12.7735050  58.9732460  26.0391910  28.1428090  58.2050290  29.1515520
  27.9114180  57.9763040  28.2513470  28.4032640  59.1249840  29.1060410
  12.8940230  56.6475000  30.0443470  11.9996280  56.6141760  30.3837180
  13.4337780  56.8461790  30.8094720  11.5186380  56.5612270  17.5407040
  10.6150460  56.8242470  17.3658700  12.0027000  56.8323440  16.7607000
  28.0279430  57.2836260  22.8183240  28.5516910  56.7898910  22.1873410
  28.6138850  57.4186620  23.5630810  28.2069150  57.3676130  26.3402790
  27.2571860  57.3339670  26.4547780  28.3882160  58.2776240  26.1052560
  14.0613590  55.6177810  15.4501420  14.7705290  55.1961030  14.9648700
  13.3453530  55.6853040  14.8184770  13.7087750  51.6717140  14.4904070
  14.4315880  52.2126080  14.8085290  13.9812270  51.3980560  13.6145610
  27.5179400  56.5409610  18.7575650  28.0138520  56.3080480  19.5424530
  27.3195470  55.7021450  18.3413290  13.3979940  50.9223330  24.3926690
  14.0456130  50.3720710  23.9521850  13.8181780  51.1766480  25.2142500
  28.9466560  55.1770560  21.2913330  28.8365840  55.0226600  22.2295600
  29.7074150  54.6491500  21.0488740  29.8356830  53.0078480  14.5319470
  30.7606140  52.8759660  14.3237760  29.8132620  53.0871300  15.4855920
  29.9095320  53.7789140  17.1576180  29.1146820  53.7134260  17.6869090
  30.1138600  54.7139780  17.1461530  26.8513740  67.8180690  21.1514570
  27.4472810  67.4965260  20.4748990  27.1091890  67.3452510  21.9427840
  13.1511940  51.0779000  27.1352010  12.8026760  51.5342820  27.9010190
  12.8199640  50.1836130  27.2174440  14.7576310  64.2498600  31.3005200
  14.7145940  63.8791510  32.1819660  14.8887320  65.1876170  31.4407020
  18.4582340  65.8058190  26.9014920  18.2173700  66.0732750  26.0145440
  19.3984980  65.9763920  26.9565780  20.6636760  52.2690880  30.6571430
  20.6025650  52.8612710  31.4066840  21.6037140  52.1616840  30.5121690
  29.7186500  67.8252570  27.7025560  29.2244780  68.2221440  26.9852690
  29.1099790  67.2001780  28.0962840  13.8232580  50.6055200  30.4102780
  14.3715570  50.4243250  29.6468890  13.8887890  49.8149310  30.9459090
  14.5964340  67.1960850  28.4202980  14.0024660  67.0645550  29.1593020
  14.5888180  66.3598990  27.9545080  27.4025950  68.4675990  24.9812300
  26.9428920  69.2191800  24.6070320  26.7738410  67.7482460  24.9227100
  14.2276570  64.5619230  27.3711020  13.5010630  63.9424520  27.3036970
  14.2885720  64.9559840  26.5009100  17.8321670  66.7764230  24.1560430
  18.3486690  66.1651590  23.6308690  18.4819050  67.2793010  24.6471440
  20.5717170  67.6672720  24.9829410  20.8594980  67.4127020  24.1062420
  21.0840390  67.1150080  25.5734980  21.7894180  51.4062920  25.5625920
  21.0065970  51.8808420  25.8422680  21.4957110  50.5017750  25.4539100
  26.3415250  52.1086020  23.6075010  26.7823340  52.0531120  22.7596610
  26.0722840  53.0244030  23.6785190  28.2053820  51.7401260  21.6183830
  28.1442220  50.7962480  21.4714850  28.9845850  51.8481350  22.1637290
  12.5106570  67.8793620  20.5807780  12.3428610  67.2464300  21.2789670
  11.6441080  68.0853020  20.2301970  13.1334590  51.7110400  18.0839640
  13.8913950  51.8239280  17.5103670  12.6711760  52.5479600  18.0383070
  19.6748400  53.8249670  21.0741950  18.8622910  53.4506560  20.7337830
  20.1790040  53.0694750  21.3763140  24.1773380  50.4892120  22.3125020
  24.7802750  51.0612330  22.7873540  23.4366370  51.0531560  22.0898920
  27.3207980  50.8913680  17.5865300  27.5158610  51.7897130  17.8532730
  26.5337850  50.6600760  18.0798250  14.1169270  66.5726850  18.0257920
  13.5916890  66.9534880  17.3219880  14.0413850  67.1977620  18.7467630
  15.5059740  52.2374450  16.6241610  16.0352500  51.4504250  16.4949560
  16.1388060  52.9165640  16.8577140  17.6997580  51.9749590  19.6787000
  17.0700320  51.2736900  19.8457130  17.1602720  52.7353720  19.4620160
  20.6389530  68.5888820  32.3497610  21.5656840  68.3533090  32.3933570
  20.6239960  69.4160820  31.8683640  28.8734590  68.1314390  19.3471860
  29.0486780  67.4452130  18.7032780  28.1756160  68.6561440  18.9548530
  17.8253140  51.2533570  32.1139490  17.5437410  51.7567170  31.3500310
  18.2072840  50.4555320  31.7481620  16.7162240  68.5209230  16.9007170
  17.4481060  68.2368510  16.3531060  16.9755910  68.2822510  17.7906550
  15.8777030  64.6373960  16.9053500  15.2485910  65.1059060  17.4539330
  15.9924860  63.7923180  17.3399690  27.2067090  67.8158680  32.1738650
  27.9992410  67.3207910  31.9664610  27.5000240  68.4948820  32.7814260
  23.3326750  58.6879620   3.0554700  23.2520800  57.7734230   2.7846410
  22.9191170  59.1846690   2.3494410  21.4644790  60.4658640   4.9363970
  20.6886890  59.9859080   5.2262540  22.1157720  59.7864290   4.7620130
  15.4810620  60.7778450   5.8139730  14.6495500  60.5227160   6.2136240
  16.0891600  60.8489220   6.5497650  25.4852220  64.8718830   3.7163100
  25.0233750  64.1006070   4.0450270  26.2977770  64.8984900   4.2215550
  15.4611880  64.8118540   6.0097750  15.7639920  63.9216280   5.8307970
  16.2055470  65.3688760   5.7820000  11.8535580  58.3385990   5.4821820
  12.4251690  57.5708190   5.4825460  11.8537120  58.6374750   4.5728430
  21.7115530  67.1576840   3.3367090  21.0926970  67.6134340   2.7661530
  22.5667310  67.3128300   2.9356790  20.9053780  63.1415830   4.9434130
  20.8362060  62.2005770   4.7823260  21.6673640  63.2317240   5.5156700
  13.0960450  53.7470350   7.2690750  12.9163290  52.8496100   7.5493510
  12.6940530  54.2942220   7.9437700  21.9358950  55.9486210   5.1703060
  22.3123770  55.0758090   5.0576730  21.8378460  56.2844910   4.2793500
  25.7183070  53.4436650   2.1031400  26.5392690  52.9533220   2.1456880
  25.7517150  54.0334310   2.8563240  13.7147120  56.2430850   5.8773090
  14.3957230  56.5069220   6.4960490  13.3995170  55.4031720   6.2111100
  17.9071690  57.2898210   4.9645680  18.4149910  57.7879180   5.6050700
  18.4384930  56.5133410   4.7885040  30.0082620  55.4603400   8.6675030
  29.3034790  55.8485110   8.1490140  30.2740540  56.1553690   9.2695960
  16.1907790  51.9296770   9.2309100  16.1926230  52.4469160   8.4255000
  15.3612100  51.4526950   9.2079030  17.4410640  61.5691950   7.4082600
  17.1080020  62.1960870   8.0503670  17.6177320  62.0953830   6.6284270
  25.9544550  55.3837030   4.8758940  25.2500120  55.6721920   5.4562050
  26.3156710  56.1937140   4.5158500  15.8723120  53.6406730   7.2379550
  16.2139930  54.4848780   6.9433420  14.9338930  53.7890470   7.3544890
  16.6529740  63.5372750   9.2231780  17.2703740  64.2123830   8.9416230
  15.7922860  63.9460730   9.1319280  27.5707330  65.0012160   7.1386420
  26.8870850  65.6711270   7.1303090  28.1101620  65.1992810   6.3731280
  29.0231470  54.8291820   5.2668150  28.0756380  54.8630800   5.3983580
  29.3481460  55.6430770   5.6517510  19.5551010  51.1289000   3.5624140
  19.8625990  50.5735890   2.8459640  18.6251710  51.2633460   3.3797130
  25.1066070  66.8456290   5.8531600  25.1193230  66.4418580   4.9853860
  24.5541290  67.6203580   5.7493030  24.5051510  61.7486130   7.1814210
  24.9220300  61.5346240   6.3467670  25.2291330  62.0058920   7.7522830
  28.4513610  60.1473350   7.2730450  27.6232240  60.2166440   6.7980580
  29.0464090  60.7327660   6.8046280  25.4155620  56.9342670   8.2185320
  25.0026800  57.7596380   8.4725310  24.6831570  56.3487710   8.0261680
  17.5488410  59.7202570   3.0803990  17.1445410  59.0079820   2.5849890
  17.6351530  59.3755810   3.9692030  18.0170110  63.4070130   5.2443200
  17.7198400  62.8015600   4.5650980  18.9669930  63.4447440   5.1332560
  16.2617030  56.4945780   6.8603030  16.8131620  56.6041120   6.0856280
  16.7760540  56.8683380   7.5758260  26.1055720  66.9802000   8.9066300
  25.6286280  67.7874190   8.7138910  25.4217510  66.3280330   9.0592510
  17.1088540  63.1451820  11.8951000  16.2117070  63.3691790  12.1424400
  17.1341410  63.2686760  10.9462400  15.9359760  60.0165140  10.4708370
  15.7967530  60.8887940  10.8395770  15.0541120  59.6737950  10.3256310
  17.7340110  65.9586840  12.6793520  17.7055540  66.3629790  11.8121950
  17.5705080  65.0297200  12.5165120  29.6854930  66.7413940  13.9757690
  30.1614650  67.2196830  14.6546770  30.3062090  66.6731430  13.2503190
  11.8878410  61.7862690   6.3879280  11.9658830  61.9211460   5.4435000
  12.5020090  61.0778580   6.5807400  13.1326040  63.4862880   2.7985460
  12.7254120  63.6277470   1.9439060  14.0239050  63.2023040   2.5956670
  29.0888180  63.9326790  11.1357700  29.2151240  63.6938670  10.2174880
  29.1309560  63.1011330  11.6079780  22.9504920  67.6354790   9.7052510
  23.4649590  67.5462800  10.5074940  22.1074000  67.9814490   9.9980420
  24.1935380  67.0560400   1.7683000  24.6492330  66.2749780   2.0821620
  24.5327900  67.7667220   2.3124180  28.9412190  55.9859250  12.1007440
  28.3256460  56.4938920  11.5722900  28.6208610  55.0857580  12.0433380
  11.9437930  62.8276860   8.9273740  12.1068970  62.3582220   8.1093110
  12.4090380  62.3200420   9.5922580  16.7156700  51.9582620   3.9634310
  16.2724850  52.7392160   3.6318830  17.2741690  52.2812510   4.6705250
  21.0026510  54.8251140   9.5669630  20.5405880  55.0334160  10.3789570
  20.6004620  54.0110490   9.2640300  26.0031020  56.0460090  10.6966290
  25.1524610  55.7465840  11.0175360  25.8432810  56.2902100   9.7850110
  23.0980730  57.5461840  12.7965080  23.4234140  56.7125590  12.4567310
  23.8861060  58.0690360  12.9443410  18.7532600  52.5029950   5.8223910
  19.0504930  53.4092780   5.7415930  19.3018160  52.0148730   5.2083480
  18.9470130  57.9801770  12.3575830  18.8513730  57.0396500  12.2076230
  19.7902110  58.2016840  11.9623900  14.0780670  54.3915440  10.5109610
  13.6844060  55.2390650  10.7182390  13.3899070  53.7541810  10.7018250
  20.6525720  54.4750410  13.5806350  19.9624040  54.2822610  14.2152440
  21.3958020  54.7585050  14.1130650  11.3797720  52.3143900   4.5439690
  11.0910770  52.8846760   5.2564670  12.1243480  51.8348350   4.9070920
  22.9288690  58.3148850   6.4160270  22.1969810  58.8235660   6.7650370
  22.5313030  57.4978830   6.1149050  19.3666080  54.9903050   4.8212760
  19.3702140  54.5493000   3.9717300  20.2617200  55.3120380   4.9284580
  15.2168460  54.8729540   3.7806970  14.8768510  55.3504770   4.5374020
  14.4545780  54.4194660   3.4208070  23.3914600  53.7682530   5.8283210
  23.4087340  54.2191180   6.6725060  23.1430180  52.8688170   6.0416650
  26.8185350  51.1814710  11.6669590  27.1431120  50.4504370  12.1927570
  26.8541860  50.8628350  10.7650580  13.5176910  62.2028290  11.0869550
  13.1331700  61.5621960  11.6852510  13.8289100  62.9064410  11.6564280
  19.6674050  59.0504830   6.5678170  20.0344180  58.5763400   7.3139510
  19.4779110  59.9246400   6.9086510  12.5314540  53.7948520   2.6971640
  12.2461460  53.4304190   3.5350260  12.4693400  53.0628980   2.0834780
  17.4573420  58.0913470   8.8862380  17.1530490  58.9705450   9.1112740
  18.4119880  58.1513260   8.9219820  26.7443190  61.2939820   5.2755620
  27.4642310  61.7895110   4.8851730  26.5425010  60.6157710   4.6309490
  22.1261990  61.3648880  11.1624620  22.0599300  60.4444550  10.9082210
  21.4967130  61.4624320  11.8769260  16.0292610  61.9654840   3.1208040
  16.5471280  61.1623100   3.0664930  15.5776630  61.9033980   3.9624870
  13.5137150  58.9316210  10.0333740  13.1552090  59.5970060  10.6207080
  13.2191710  58.0999760  10.4046360  16.7150270  59.3900450  12.9173290
  16.4150410  59.5357630  12.0201110  17.4861510  58.8305740  12.8246680
  22.0578720  64.1869450  10.9128420  22.0723260  63.2550410  10.6947330
  21.3503820  64.2729210  11.5518190  28.2689930  60.8276790  10.2597000
  27.5438120  61.4205570  10.0626390  28.7965390  60.8200330   9.4610370
  23.7989520  62.5536960   3.7580850  24.1513340  61.9565090   3.0982220
  22.9151850  62.2281190   3.9289100  21.4912620  65.8287020   8.0068920
  22.1354840  66.0346400   8.6842340  21.8542060  65.0675420   7.5539770
  22.7644700  63.8319370   6.7246370  23.4066930  63.1312530   6.8378540
  23.2894050  64.6117810   6.5443260  24.5382320  64.6314270   9.9282430
  24.8738560  65.2180960  10.6060350  23.6182660  64.5006980  10.1580220
  12.0885720  52.4209450  10.7105840  11.3744240  52.6206370  11.3158450
  12.5080760  51.6449020  11.0820640  12.3758310  66.4089710  11.6972370
  12.4849430  65.4684450  11.5567760  11.7238870  66.6744460  11.0486100
  20.3670900  64.6805600  13.0970490  20.0467770  63.9614840  13.6416180
  19.6929260  65.3560670  13.1706550  23.5824500  54.9131760   8.4607290
  23.9505320  54.0926970   8.7886860  22.7222700  54.9733650   8.8762940
  20.5426490  57.5671350   8.6845260  21.0411740  58.0417170   9.3497110
  20.6849440  56.6434870   8.8915290  27.7493350  53.7839310   9.5273650
  27.2466950  54.5244710   9.8667460  28.5650010  54.1723310   9.2110440
  26.0415360  59.0272490   2.9735010  25.1005500  59.0422720   3.1482700
  26.3559430  58.2408450   3.4195310  28.0440940  66.1981340   4.6489270
  28.1688360  67.0212510   5.1213080  28.9106500  65.9872070   4.3013420
  15.5158470  68.2912550   4.3206400  16.2520950  67.7428010   4.5914970
  15.8999390  69.1568560   4.1812390  14.5216750  67.4758620  13.5091980
  15.3229480  67.7970670  13.9227380  14.0068570  67.1154200  14.2311890
  23.3581380  63.5838490  13.4567390  22.7519540  63.6070090  12.7163140
  23.0535490  62.8521530  13.9934640  24.7881750  67.3118780  12.0676800
  25.7403500  67.2276800  12.0177040  24.6409970  67.9760490  12.7410590
  12.2414560  59.9632080  12.4528030  12.7453580  59.3839360  13.0244260
  11.5021980  60.2472310  12.9904400  19.2952500  61.3703070  11.9863550
  18.5298170  61.9388070  11.9018220  19.4768460  61.0779280  11.0931780
  26.4375850  63.1008400  12.5438570  27.1785320  63.4384160  12.0406030
  25.6748530  63.2700460  11.9908340  14.2737640  58.1061670  13.3478100
  14.3142980  57.8075540  14.2563330  15.1283140  58.5069280  13.1885620
  16.2143450  56.6853770  11.3152590  15.6839910  56.1944720  10.6875930
  16.8831520  57.1137970  10.7810520  25.1121510  61.1523230  11.0793780
  25.5262530  61.3068310  11.9284200  24.1772510  61.2778450  11.2419560
  25.5843680  58.4919390  13.0832930  26.1664450  57.7371710  12.9953410
  25.7605450  59.0226830  12.3064410  16.7015750  53.6516140  11.3949880
  16.6072620  53.0336890  10.6700750  16.1213140  54.3782430  11.1679790
  19.4677190  52.2089380   8.4277270  19.0194490  52.2313640   7.5822820
  18.8342390  51.8108400   9.0247570  19.8736740  61.1043710   9.0489710
  20.2924850  61.9476440   8.8765950  18.9545370  61.2415750   8.8196490
  22.2100640  58.8359890  10.4327550  22.3296850  58.2401030  11.1722390
  23.0694640  58.8729580  10.0128850  24.5488540  59.3897080   9.0090060
  24.0223760  59.9139700   8.4055200  24.8919880  60.0224470   9.6399790
  17.7244160  67.4096720  10.1647440  17.1865250  68.1342780   9.8456140
  17.9778120  66.9327060   9.3744780  18.9769410  55.3781240  11.6903370
  19.5669100  55.0697090  12.3781190  18.1589650  54.9060990  11.8463270
  23.7962840  54.9947050  11.9236390  23.1078360  54.3328590  11.8586380
  24.5168860  54.5485320  12.3684850  20.5806370  68.6447930  10.4234090
  20.5065070  69.5483070  10.7306460  19.6785210  68.3259830  10.3956160
  11.9833660  65.9722520   3.7267710  12.3136670  65.1043580   3.4946350
  12.4124660  66.1781040   4.5572670  12.4723870  66.8393110   6.4649340
  12.0354860  67.0193910   7.2973490  13.0401550  67.5967730   6.3231060
  28.1086050  66.3410110  10.7526650  27.5088040  66.4002670  10.0090570
  28.2379950  65.4015090  10.8823500  12.3048300  59.3513340   2.8238220
  11.6497140  59.0824980   2.1797920  13.1426250  59.2417820   2.3740200
  29.8103930  61.6825510   3.4372490  30.1812760  60.8992830   3.0308460
  30.4505860  62.3714610   3.2589790  26.7937690  63.0662090   8.8502810
  25.9797530  63.4959250   9.1128600  27.2011890  63.6780500   8.2371860
  13.3424230  59.7365910   7.3641560  13.7097270  59.6493310   8.2437580
  12.7735050  58.9732460   7.2648420  28.1428090  58.2050290  10.3772030
  27.9114180  57.9763040   9.4769980  28.4032640  59.1249840  10.3316920
  12.8940230  56.6475000  11.2699980  11.9996280  56.6141760  11.6093690
  13.4337780  56.8461790  12.0351230  26.5816160  53.4306720  13.1551730
  27.4586340  53.4390120  13.5385730  26.5937000  52.6937560  12.5444080
  28.0279430  57.2836260   4.0439750  28.5516910  56.7898910   3.4129920
  28.6138850  57.4186620   4.7887320  28.2069150  57.3676130   7.5659300
  27.2571860  57.3339670   7.6804290  28.3882160  58.2776240   7.3309070
  13.3979940  50.9223330   5.6183200  14.0456130  50.3720710   5.1778360
  13.8181780  51.1766480   6.4399010  28.9466560  55.1770560   2.5169840
  28.8365840  55.0226600   3.4552110  29.7074150  54.6491500   2.2745250
  27.2932280  51.1164690   8.9752840  27.9304500  51.7298830   9.3412030
  27.4407170  51.1525350   8.0302070  26.8513740  67.8180690   2.3771080
  27.4472810  67.4965260   1.7005500  27.1091890  67.3452510   3.1684350
  13.1511940  51.0779000   8.3608520  12.8026760  51.5342820   9.1266700
  12.8199640  50.1836130   8.4430950  14.7576310  64.2498600  12.5261710
  14.7145940  63.8791510  13.4076170  14.8887320  65.1876170  12.6663530
  18.4582340  65.8058190   8.1271430  18.2173700  66.0732750   7.2401950
  19.3984980  65.9763920   8.1822290  20.6636760  52.2690880  11.8827940
  20.6025650  52.8612710  12.6323350  21.6037140  52.1616840  11.7378200
  23.3011320  51.9260940  11.5220230  23.9151730  52.2440230  10.8601310
  23.8460880  51.4409530  12.1416090  29.7186500  67.8252570   8.9282070
  29.2244780  68.2221440   8.2109200  29.1099790  67.2001780   9.3219350
  13.8232580  50.6055200  11.6359290  14.3715570  50.4243250  10.8725400
  13.8887890  49.8149310  12.1715600  14.5964340  67.1960850   9.6459490
  14.0024660  67.0645550  10.3849530  14.5888180  66.3598990   9.1801590
  24.0419360  50.4893080   7.8489520  23.1679200  50.8228190   7.6462450
  23.9330110  50.0166260   8.6741390  24.9491340  52.6963950   9.2331240
  24.6204700  51.8815710   8.8532970  25.8973640  52.6533760   9.1096930
  27.4025950  68.4675990   6.2068810  26.9428920  69.2191800   5.8326830
  26.7738410  67.7482460   6.1483610  14.2276570  64.5619230   8.5967530
  13.5010630  63.9424520   8.5293480  14.2885720  64.9559840   7.7265610
  17.8321670  66.7764230   5.3816940  18.3486690  66.1651590   4.8565200
  18.4819050  67.2793010   5.8727950  20.5717170  67.6672720   6.2085920
  20.8594980  67.4127020   5.3318930  21.0840390  67.1150080   6.7991490
  21.7894180  51.4062920   6.7882430  21.0065970  51.8808420   7.0679190
  21.4957110  50.5017750   6.6795610  26.3415250  52.1086020   4.8331520
  26.7823340  52.0531120   3.9853120  26.0722840  53.0244030   4.9041700
  28.2053820  51.7401260   2.8440340  28.1442220  50.7962480   2.6971360
  28.9845850  51.8481350   3.3893800  19.6748400  53.8249670   2.2998460
  18.8622910  53.4506560   1.9594340  20.1790040  53.0694750   2.6019650
  24.1773380  50.4892120   3.5381530  24.7802750  51.0612330   4.0130050
  23.4366370  51.0531560   3.3155430  20.6389530  68.5888820  13.5754120
  21.5656840  68.3533090  13.6190080  20.6239960  69.4160820  13.0940150
  17.8253140  51.2533570  13.3396000  17.5437410  51.7567170  12.5756820
  18.2072840  50.4555320  12.9738130  24.4268600  50.6687150  13.9176470
  24.3134050  50.9881760  14.8127990  25.2438340  51.0699660  13.6213750
  27.2067090  67.8158680  13.3995160  27.9992410  67.3207910  13.1921120
  27.5000240  68.4948820  14.0070770  23.3326750  39.9136130  96.9272150
  23.2520800  38.9990740  96.6563860  22.9191170  40.4103200  96.2211860
  21.4644790  41.6915150  98.8081420  20.6886890  41.2115590  99.0979990
  22.1157720  41.0120800  98.6337580  15.4810620  42.0034960  99.6857180
  14.6495500  41.7483670 100.0853690  16.0891600  42.0745730 100.4215100
  25.4852220  46.0975340  97.5880550  25.0233750  45.3262580  97.9167720
  26.2977770  46.1241410  98.0933000  15.4611880  46.0375050  99.8815200
  15.7639920  45.1472790  99.7025420  16.2055470  46.5945270  99.6537450
  13.8902570  36.9636850  93.4699570  13.0019270  37.3052820  93.3679450
  14.1743760  36.7637170  92.5780400  11.8535580  39.5642500  99.3539270
  12.4251690  38.7964700  99.3542910  11.8537120  39.8631260  98.4445880
  21.7115530  48.3833350  97.2084540  21.0926970  48.8390850  96.6378980
  22.5667310  48.5384810  96.8074240  20.9053780  44.3672340  98.8151580
  20.8362060  43.4262280  98.6540710  21.6673640  44.4573750  99.3874150
  21.9358950  37.1742720  99.0420510  22.3123770  36.3014600  98.9294180
  21.8378460  37.5101420  98.1510950  16.0663960  35.5468350  94.5037950
  16.1730710  36.4472080  94.8106710  15.1556320  35.4986320  94.2132600
  25.7183070  34.6693160  95.9748850  26.5392690  34.1789730  96.0174330
  25.7517150  35.2590820  96.7280690  13.7147120  37.4687360  99.7490540
  14.3957230  37.7325730 100.3677940  13.3995170  36.6288230 100.0828550
  17.9071690  38.5154720  98.8363130  18.4149910  39.0135690  99.4768150
  18.4384930  37.7389920  98.6602490  22.5778880  43.2672590  94.6016450
  21.9596150  43.7322040  94.0379170  23.0902130  43.9600070  95.0185960
  25.9544550  36.6093540  98.7476390  25.2500120  36.8978430  99.3279500
  26.3156710  37.4193650  98.3875950  15.8723120  34.8663240 101.1097000
  16.2139930  35.7105290 100.8150870  14.9338930  35.0146980 101.2262340
  11.9462080  43.9529120  91.9756080  11.5690060  44.4416220  91.2440980
  12.2035150  44.6254400  92.6062610  27.5707330  46.2268670 101.0103870
  26.8870850  46.8967780 101.0020540  28.1101620  46.4249320 100.2448730
  29.0231470  36.0548330  99.1385600  28.0756380  36.0887310  99.2701030
  29.3481460  36.8687280  99.5234960  19.5551010  32.3545510  97.4341590
  19.8625990  31.7992400  96.7177090  18.6251710  32.4889970  97.2514580
  25.1066070  48.0712800  99.7249050  25.1193230  47.6675090  98.8571310
  24.5541290  48.8460090  99.6210480  26.4011490  44.7929020  94.8139220
  26.2907820  43.8503350  94.9388640  26.3979740  45.1544660  95.7001980
  24.5051510  42.9742640 101.0531660  24.9220300  42.7602750 100.2185120
  25.2291330  43.2315430 101.6240280  21.9431770  40.4194340  94.1701710
  21.0161050  40.3531720  94.3990180  22.0956590  41.3574470  94.0556950
  21.9300850  36.6911340  91.1668870  20.9904520  36.8525300  91.2521330
  22.2484110  37.4097020  90.6204860  28.4513610  41.3729860 101.1447900
  27.6232240  41.4422950 100.6698030  29.0464090  41.9584170 100.6763730
  25.9729060  41.9814640  94.6736960  25.3541480  41.6434190  94.0263260
  25.9553510  41.3374400  95.3816150  17.5488410  40.9459080  96.9521440
  17.1445410  40.2336330  96.4567340  17.6351530  40.6012320  97.8409480
  18.0170110  44.6326640  99.1160650  17.7198400  44.0272110  98.4368430
  18.9669930  44.6703950  99.0050010  16.2617030  37.7202290 100.7320480
  16.8131620  37.8297630  99.9573730  16.7760540  38.0939890 101.4475710
  24.1493760  41.2201450  91.6809710  24.5887040  40.3823880  91.5347530
  24.8622180  41.8530850  91.7673850  22.2589140  46.1597520  95.6490950
  22.6985050  46.9021850  95.2346340  22.1976030  46.4024090  96.5729910
  27.7310900  32.4744260  89.9950750  27.4183560  32.5671090  90.8949820
  28.4923370  33.0525290  89.9448180  14.2493040  39.8404060  94.4528090
  14.1290640  40.5666150  93.8409360  13.9393930  39.0706970  93.9756000
  11.8878410  43.0119200 100.2596730  11.9658830  43.1467970  99.3152450
  12.5020090  42.3035090 100.4524850  13.1326040  44.7119390  96.6702910
  12.7254120  44.8533980  95.8156510  14.0239050  44.4279550  96.4674120
  24.9259320  49.1466640  93.0053960  24.7660460  48.8569580  93.9035790
  24.7606030  48.3706770  92.4699190  17.4047700  48.9265170  94.7825580
  17.2290180  48.0100710  94.5693380  16.5503440  49.2852460  95.0223380
  24.6285450  46.6554200  91.5651960  23.9350610  46.6531490  90.9054240
  25.3708310  46.2313520  91.1346130  24.1935380  48.2816910  95.6400450
  24.6492330  47.5006290  95.9539070  24.5327900  48.9923730  96.1841630
  16.7156700  33.1839130  97.8351760  16.2724850  33.9648670  97.5036280
  17.2741690  33.5069020  98.5422700  19.8315520  32.8049830  92.7157590
  19.2069700  32.8009700  93.4410900  19.7445640  31.9380790  92.3193560
  18.7532600  33.7286460  99.6941360  19.0504930  34.6349290  99.6133380
  19.3018160  33.2405240  99.0800930  16.5070920  38.3072700  95.5633010
  16.2811840  38.0909870  96.4679630  15.7263450  38.7401160  95.2178980
  23.7368680  38.3136070  94.1623660  23.1377570  39.0371870  93.9787280
  24.2848290  38.2512850  93.3800110  22.3433550  36.9499610  96.1926940
  22.7363120  37.2671810  95.3795630  22.7050400  36.0711490  96.3071460
  11.3797720  33.5400410  98.4157140  11.0910770  34.1103270  99.1282120
  12.1243480  33.0604860  98.7788370  11.5667950  37.4820530  89.6259860
  11.4842620  38.4251290  89.7674850  11.2151010  37.3395440  88.7472210
  22.9288690  39.5405360 100.2877720  22.1969810  40.0492170 100.6367820
  22.5313030  38.7235340  99.9866500  19.3666080  36.2159560  98.6930210
  19.3702140  35.7749510  97.8434750  20.2617200  36.5376890  98.8002030
  15.2168460  36.0986050  97.6524420  14.8768510  36.5761280  98.4091470
  14.4545780  35.6451170  97.2925520  19.4286230  37.2171640  91.6836970
  19.5499050  37.1758120  92.6322790  19.0434740  38.0795790  91.5283700
  23.3914600  34.9939040  99.7000660  23.4087340  35.4447690 100.5442510
  23.1430180  34.0944680  99.9134100  18.4407730  39.5272780  91.0820270
  17.8724630  39.0791030  90.4556180  19.1496730  39.8865560  90.5485420
  19.6674050  40.2761340 100.4395620  20.0344180  39.8019910 101.1856960
  19.4779110  41.1502910 100.7803960  12.5314540  35.0205030  96.5689090
  12.2461460  34.6560700  97.4067710  12.4693400  34.2885490  95.9552230
  15.9855210  43.5230970  93.3546680  15.2117470  42.9828590  93.1945400
  16.7149840  43.0037580  93.0164440  26.7443190  42.5196330  99.1473070
  27.4642310  43.0151620  98.7569180  26.5425010  41.8414220  98.5026940
  22.2053130  33.9134290  93.2902460  21.3917740  33.4147460  93.2147770
  22.0115080  34.7532540  92.8738810  24.9201520  38.2853940  91.5864620
  25.8081140  38.5971170  91.4115960  24.8906610  37.4126190  91.1945200
  16.0292610  43.1911350  96.9925490  16.5471280  42.3879610  96.9382380
  15.5776630  43.1290490  97.8342320  20.9162110  44.4577630  92.2652790
  21.2577810  45.2019860  91.7696110  20.0874820  44.7708750  92.6277620
  27.1915790  39.5965780  91.0544480  27.1079510  40.0280000  90.2040920
  27.9109980  40.0564130  91.4871300  28.2203040  46.4508040  93.7826610
  27.5779200  45.7963660  94.0570330  27.8333700  46.8563130  93.0067280
  23.7989520  43.7793470  97.6298300  24.1513340  43.1821600  96.9699670
  22.9151850  43.4537700  97.8006550  19.8852800  44.5391160  95.0368710
  20.5723930  45.0860370  95.4176300  19.0985220  45.0831890  95.0718320
  12.0245200  40.1563980  90.5285790  12.8940050  40.4388780  90.8121710
  11.5335520  40.9699850  90.4134600  19.1880010  41.5437190  94.6494070
  19.6442790  42.3542440  94.8754260  18.8368220  41.2260330  95.4812560
  15.0891790  31.8874840  95.1216590  14.9606420  31.8792740  96.0701510
  14.2653810  32.2257930  94.7707600  22.7644700  45.0575880 100.5963820
  23.4066930  44.3569040 100.7095990  23.2894050  45.8374320 100.4160710
  26.6100420  45.3424500  90.3202960  26.3838000  44.6254940  90.9127600
  26.2196620  45.0936940  89.4824710  12.3916450  49.3691360  91.0947420
  12.7514090  49.9680700  90.4404690  12.2508790  49.9151250  91.8682450
  26.1916670  43.2596440  91.9817120  25.9038370  43.7209130  92.7695000
  26.9868840  42.7994210  92.2501340  18.4085070  46.7522560  91.9121090
  18.3995170  47.4852250  91.2965600  17.4883430  46.5054140  92.0048050
  14.0091710  41.9737450  92.6567850  13.4019660  42.7136350  92.6663150
  14.4841060  42.0636810  91.8306050  26.9486530  35.0945210  93.1412300
  26.3199690  35.1990880  92.4270530  26.4538450  35.3141990  93.9306180
  21.3944670  46.8150800  90.5746280  21.4956650  46.6114790  89.6448260
  20.4946410  46.5609080  90.7794060  18.9170560  37.3731160  94.5570180
  18.2086710  37.8417500  94.9983790  19.2015040  36.7153170  95.1915370
  22.9485990  34.0981820  95.9965970  22.8253770  34.1167950  95.0475480
  23.8970550  34.1460760  96.1164370  20.0362780  49.3337120  95.2693950
  20.2904280  49.2958510  94.3473320  19.0875260  49.2070450  95.2622200
  17.1205580  35.6816240  91.9320890  17.9696110  36.1186390  91.8661080
  16.7536850  35.9936500  92.7592950  26.0415360  40.2529000  96.8452460
  25.1005500  40.2679230  97.0200150  26.3559430  39.4664960  97.2912760
  16.0197000  41.9348600  90.4056420  16.7860270  41.8229960  90.9681850
  16.0971690  41.2386570  89.7533190  14.7143760  39.3673670  91.0889310
  14.7947350  38.4201180  91.2006710  15.6063510  39.6980550  91.1949970
  28.0440940  47.4237850  98.5206720  28.1688360  48.2469020  98.9930530
  28.9106500  47.2128580  98.1730870  15.5158470  49.5169060  98.1923850
  16.2520950  48.9684520  98.4632420  15.8999390  50.3825070  98.0529840
  12.4003950  45.5842630  94.0665360  11.4743730  45.8263770  94.0570770
  12.8660380  46.4116890  93.9450110  18.6260780  48.6899370  90.0149420
  19.4189390  48.9788200  89.5631210  18.1065130  48.2591540  89.3361900
  27.6790950  47.9169500  91.4386160  27.3932460  47.5034640  90.6240340
  27.4810500  48.8457210  91.3186680  19.1438180  43.9102780  89.8791770
  19.0388820  43.2955130  90.6053150  18.9762400  43.3868670  89.0954780
  22.3840910  42.9722810  90.4833760  21.8351010  43.4192110  91.1276500
  23.0060170  42.4672060  91.0071430  18.0516030  41.9313730  92.3799060
  18.4732450  41.7653600  93.2230450  18.1766870  41.1213960  91.8854200
  20.5643670  40.9551340  89.6276160  21.0849330  40.2400360  89.2617310
  21.2112070  41.5937210  89.9276670  16.9474930  38.0046960  89.3257220
  16.7463990  37.1414320  89.6870560  16.7766980  37.9180320  88.3878820
  24.4263240  32.8155190  91.8544100  24.7065530  31.9723090  92.2103520
  23.6528970  33.0478300  92.3682850  15.7457730  35.1047580  89.3135100
  16.0483630  35.1115010  88.4054250  16.4852320  34.7545440  89.8102760
  18.9642660  34.0482200  90.2991300  18.6164660  33.3706190  89.7193750
  19.1655430  33.5871710  91.1134690  21.1291700  49.0362950  91.9177900
  22.0242490  49.3747920  91.9396660  21.1609330  48.3142360  91.2902180
  14.7687860  44.4090000  90.1464900  15.2062730  44.9519670  90.8022480
  15.2535590  43.5836950  90.1561240  11.9833660  47.1979030  97.5985160
  12.3136670  46.3300090  97.3663800  12.4124660  47.4037550  98.4290120
  16.5795580  45.5288040  95.2587130  16.2791120  45.4053010  96.1591040
  16.4733070  44.6696630  94.8502860  12.4723870  48.0649620 100.3366790
  12.0354860  48.2450420 101.1690940  13.0401550  48.8224240 100.1948510
  29.3487500  45.3084440  89.9613810  28.5180460  45.3761090  90.4321040
  29.5259330  46.1988560  89.6580670  28.8043960  42.0531920  92.4648010
  29.5662870  42.6228570  92.5707700  28.8198330  41.4859120  93.2356320
  12.3048300  40.5769850  96.6955670  11.6497140  40.3081490  96.0515370
  13.1426250  40.4674330  96.2457650  29.8103930  42.9082020  97.3089940
  30.1812760  42.1249340  96.9025910  30.4505860  43.5971120  97.1307240
  28.8563130  42.3466290  89.6220530  29.1311970  43.2545170  89.4939750
  28.6673870  42.2828820  90.5582520  25.2538740  35.3711140  90.9174160
  25.6723620  35.1842120  90.0770820  24.9474800  34.5190190  91.2277090
  28.7528470  40.2835280  94.6149960  28.3772070  39.5163210  94.1831250
  28.0231590  40.6657980  95.1024890  11.5186380  37.7868780  92.6381000
  10.6150460  38.0498980  92.4632660  12.0027000  38.0579950  91.8580960
  28.0279430  38.5092770  97.9157200  28.5516910  38.0155420  97.2847370
  28.6138850  38.6443130  98.6604770  28.2069150  38.5932640 101.4376750
  27.2571860  38.5596180 101.5521740  28.3882160  39.5032750 101.2026520
  14.0613590  36.8434320  90.5475380  14.7705290  36.4217540  90.0622660
  13.3453530  36.9109550  89.9158730  13.7087750  32.8973650  89.5878030
  14.4315880  33.4382590  89.9059250  13.9812270  32.6237070  88.7119570
  27.5179400  37.7666120  93.8549610  28.0138520  37.5336990  94.6398490
  27.3195470  36.9277960  93.4387250  13.3979940  32.1479840  99.4900650
  14.0456130  31.5977220  99.0495810  13.8181780  32.4022990 100.3116460
  28.9466560  36.4027070  96.3887290  28.8365840  36.2483110  97.3269560
  29.7074150  35.8748010  96.1462700  29.8356830  34.2334990  89.6293430
  30.7606140  34.1016170  89.4211720  29.8132620  34.3127810  90.5829880
  29.9095320  35.0045650  92.2550140  29.1146820  34.9390770  92.7843050
  30.1138600  35.9396290  92.2435490  26.8513740  49.0437200  96.2488530
  27.4472810  48.7221770  95.5722950  27.1091890  48.5709020  97.0401800
  27.4025950  49.6932500 100.0786260  26.9428920  50.4448310  99.7044280
  26.7738410  48.9738970 100.0201060  17.8321670  48.0020740  99.2534390
  18.3486690  47.3908100  98.7282650  18.4819050  48.5049520  99.7445400
  20.5717170  48.8929230 100.0803370  20.8594980  48.6383530  99.2036380
  21.0840390  48.3406590 100.6708940  21.7894180  32.6319430 100.6599880
  21.0065970  33.1064930 100.9396640  21.4957110  31.7274260 100.5513060
  26.3415250  33.3342530  98.7048970  26.7823340  33.2787630  97.8570570
  26.0722840  34.2500540  98.7759150  28.2053820  32.9657770  96.7157790
  28.1442220  32.0218990  96.5688810  28.9845850  33.0737860  97.2611250
  12.5106570  49.1050130  95.6781740  12.3428610  48.4720810  96.3763630
  11.6441080  49.3109530  95.3275930  13.1334590  32.9366910  93.1813600
  13.8913950  33.0495790  92.6077630  12.6711760  33.7736110  93.1357030
  19.6748400  35.0506180  96.1715910  18.8622910  34.6763070  95.8311790
  20.1790040  34.2951260  96.4737100  24.1773380  31.7148630  97.4098980
  24.7802750  32.2868840  97.8847500  23.4366370  32.2788070  97.1872880
  27.3207980  32.1170190  92.6839260  27.5158610  33.0153640  92.9506690
  26.5337850  31.8857270  93.1772210  14.1169270  47.7983360  93.1231880
  13.5916890  48.1791390  92.4193840  14.0413850  48.4234130  93.8441590
  15.5059740  33.4630960  91.7215570  16.0352500  32.6760760  91.5923520
  16.1388060  34.1422150  91.9551100  17.6997580  33.2006100  94.7760960
  17.0700320  32.4993410  94.9431090  17.1602720  33.9610230  94.5594120
  28.8734590  49.3570900  94.4445820  29.0486780  48.6708640  93.8006740
  28.1756160  49.8817950  94.0522490  16.7162240  49.7465740  91.9981130
  17.4481060  49.4625020  91.4505020  16.9755910  49.5079020  92.8880510
  15.8777030  45.8630470  92.0027460  15.2485910  46.3315570  92.5513290
  15.9924860  45.0179690  92.4373650  23.3326750  39.9136130  78.1528660
  23.2520800  38.9990740  77.8820370  22.9191170  40.4103200  77.4468370
  21.4644790  41.6915150  80.0337930  20.6886890  41.2115590  80.3236500
  22.1157720  41.0120800  79.8594090  15.4810620  42.0034960  80.9113690
  14.6495500  41.7483670  81.3110200  16.0891600  42.0745730  81.6471610
  15.4611880  46.0375050  81.1071710  15.7639920  45.1472790  80.9281930
  16.2055470  46.5945270  80.8793960  13.8902570  36.9636850  74.6956080
  13.0019270  37.3052820  74.5935960  14.1743760  36.7637170  73.8036910
  11.8535580  39.5642500  80.5795780  12.4251690  38.7964700  80.5799420
  11.8537120  39.8631260  79.6702390  21.7115530  48.3833350  78.4341050
  21.0926970  48.8390850  77.8635490  22.5667310  48.5384810  78.0330750
  20.9053780  44.3672340  80.0408090  20.8362060  43.4262280  79.8797220
  21.6673640  44.4573750  80.6130660  13.0960450  34.9726860  82.3664710
  12.9163290  34.0752610  82.6467470  12.6940530  35.5198730  83.0411660
  21.9358950  37.1742720  80.2677020  22.3123770  36.3014600  80.1550690
  21.8378460  37.5101420  79.3767460  16.0663960  35.5468350  75.7294460
  16.1730710  36.4472080  76.0363220  15.1556320  35.4986320  75.4389110
  25.7183070  34.6693160  77.2005360  26.5392690  34.1789730  77.2430840
  25.7517150  35.2590820  77.9537200  13.7147120  37.4687360  80.9747050
  14.3957230  37.7325730  81.5934450  13.3995170  36.6288230  81.3085060
  17.9071690  38.5154720  80.0619640  18.4149910  39.0135690  80.7024660
  18.4384930  37.7389920  79.8859000  30.0082620  36.6859910  83.7648990
  29.3034790  37.0741620  83.2464100  30.2740540  37.3810200  84.3669920
  16.1907790  33.1553280  84.3283060  16.1926230  33.6725670  83.5228960
  15.3612100  32.6783460  84.3052990  22.5778880  43.2672590  75.8272960
  21.9596150  43.7322040  75.2635680  23.0902130  43.9600070  76.2442470
  17.4410640  42.7948460  82.5056560  17.1080020  43.4217380  83.1477630
  17.6177320  43.3210340  81.7258230  25.9544550  36.6093540  79.9732900
  25.2500120  36.8978430  80.5536010  26.3156710  37.4193650  79.6132460
  15.8723120  34.8663240  82.3353510  16.2139930  35.7105290  82.0407380
  14.9338930  35.0146980  82.4518850  16.6529740  44.7629260  84.3205740
  17.2703740  45.4380340  84.0390190  15.7922860  45.1717240  84.2293240
  11.9462080  43.9529120  73.2012590  11.5690060  44.4416220  72.4697490
  12.2035150  44.6254400  73.8319120  27.5707330  46.2268670  82.2360380
  26.8870850  46.8967780  82.2277050  28.1101620  46.4249320  81.4705240
  29.0231470  36.0548330  80.3642110  28.0756380  36.0887310  80.4957540
  29.3481460  36.8687280  80.7491470  19.5551010  32.3545510  78.6598100
  19.8625990  31.7992400  77.9433600  18.6251710  32.4889970  78.4771090
  25.1066070  48.0712800  80.9505560  25.1193230  47.6675090  80.0827820
  24.5541290  48.8460090  80.8466990  24.5051510  42.9742640  82.2788170
  24.9220300  42.7602750  81.4441630  25.2291330  43.2315430  82.8496790
  21.9431770  40.4194340  75.3958220  21.0161050  40.3531720  75.6246690
  22.0956590  41.3574470  75.2813460  21.9300850  36.6911340  72.3925380
  20.9904520  36.8525300  72.4777840  22.2484110  37.4097020  71.8461370
  28.4513610  41.3729860  82.3704410  27.6232240  41.4422950  81.8954540
  29.0464090  41.9584170  81.9020240  25.9729060  41.9814640  75.8993470
  25.3541480  41.6434190  75.2519770  25.9553510  41.3374400  76.6072660
  25.4155620  38.1599180  83.3159280  25.0026800  38.9852890  83.5699270
  24.6831570  37.5744220  83.1235640  17.5488410  40.9459080  78.1777950
  17.1445410  40.2336330  77.6823850  17.6351530  40.6012320  79.0665990
  18.0170110  44.6326640  80.3417160  17.7198400  44.0272110  79.6624940
  18.9669930  44.6703950  80.2306520  16.2617030  37.7202290  81.9576990
  16.8131620  37.8297630  81.1830240  16.7760540  38.0939890  82.6732220
  26.1055720  48.2058510  84.0040260  25.6286280  49.0130700  83.8112870
  25.4217510  47.5536840  84.1566470  17.1088540  44.3708330  86.9924960
  16.2117070  44.5948300  87.2398360  17.1341410  44.4943270  86.0436360
  24.1493760  41.2201450  72.9066220  24.5887040  40.3823880  72.7604040
  24.8622180  41.8530850  72.9930360  15.9359760  41.2421650  85.5682330
  15.7967530  42.1144450  85.9369730  15.0541120  40.8994460  85.4230270
  22.2589140  46.1597520  76.8747460  22.6985050  46.9021850  76.4602850
  22.1976030  46.4024090  77.7986420  17.7340110  47.1843350  87.7767480
  17.7055540  47.5886300  86.9095910  17.5705080  46.2553710  87.6139080
  27.7310900  32.4744260  71.2207260  27.4183560  32.5671090  72.1206330
  28.4923370  33.0525290  71.1704690  14.2493040  39.8404060  75.6784600
  14.1290640  40.5666150  75.0665870  13.9393930  39.0706970  75.2012510
  29.6854930  47.9670450  89.0731650  30.1614650  48.4453340  89.7520730
  30.3062090  47.8987940  88.3477150  11.8878410  43.0119200  81.4853240
  11.9658830  43.1467970  80.5408960  12.5020090  42.3035090  81.6781360
  13.1326040  44.7119390  77.8959420  12.7254120  44.8533980  77.0413020
  14.0239050  44.4279550  77.6930630  29.0888180  45.1583300  86.2331660
  29.2151240  44.9195180  85.3148840  29.1309560  44.3267840  86.7053740
  22.9504920  48.8611300  84.8026470  23.4649590  48.7719310  85.6048900
  22.1074000  49.2071000  85.0954380  17.4047700  48.9265170  76.0082090
  17.2290180  48.0100710  75.7949890  16.5503440  49.2852460  76.2479890
  28.9412190  37.2115760  87.1981400  28.3256460  37.7195430  86.6696860
  28.6208610  36.3114090  87.1407340  11.9437930  44.0533370  84.0247700
  12.1068970  43.5838730  83.2067070  12.4090380  43.5456930  84.6896540
  16.7156700  33.1839130  79.0608270  16.2724850  33.9648670  78.7292790
  17.2741690  33.5069020  79.7679210  21.0026510  36.0507650  84.6643590
  20.5405880  36.2590670  85.4763530  20.6004620  35.2367000  84.3614260
  26.0031020  37.2716600  85.7940250  25.1524610  36.9722350  86.1149320
  25.8432810  37.5158610  84.8824070  23.0980730  38.7718350  87.8939040
  23.4234140  37.9382100  87.5541270  23.8861060  39.2946870  88.0417370
  19.8315520  32.8049830  73.9414100  19.2069700  32.8009700  74.6667410
  19.7445640  31.9380790  73.5450070  18.7532600  33.7286460  80.9197870
  19.0504930  34.6349290  80.8389890  19.3018160  33.2405240  80.3057440
  16.5070920  38.3072700  76.7889520  16.2811840  38.0909870  77.6936140
  15.7263450  38.7401160  76.4435490  23.7368680  38.3136070  75.3880170
  23.1377570  39.0371870  75.2043790  24.2848290  38.2512850  74.6056620
  18.9470130  39.2058280  87.4549790  18.8513730  38.2653010  87.3050190
  19.7902110  39.4273350  87.0597860  22.3433550  36.9499610  77.4183450
  22.7363120  37.2671810  76.6052140  22.7050400  36.0711490  77.5327970
  14.0780670  35.6171950  85.6083570  13.6844060  36.4647160  85.8156350
  13.3899070  34.9798320  85.7992210  20.6525720  35.7006920  88.6780310
  19.9624040  35.5079120  89.3126400  21.3958020  35.9841560  89.2104610
  11.3797720  33.5400410  79.6413650  11.0910770  34.1103270  80.3538630
  12.1243480  33.0604860  80.0044880  11.5667950  37.4820530  70.8516370
  11.4842620  38.4251290  70.9931360  11.2151010  37.3395440  69.9728720
  22.9288690  39.5405360  81.5134230  22.1969810  40.0492170  81.8624330
  22.5313030  38.7235340  81.2123010  19.3666080  36.2159560  79.9186720
  19.3702140  35.7749510  79.0691260  20.2617200  36.5376890  80.0258540
  15.2168460  36.0986050  78.8780930  14.8768510  36.5761280  79.6347980
  14.4545780  35.6451170  78.5182030  19.4286230  37.2171640  72.9093480
  19.5499050  37.1758120  73.8579300  19.0434740  38.0795790  72.7540210
  23.3914600  34.9939040  80.9257170  23.4087340  35.4447690  81.7699020
  23.1430180  34.0944680  81.1390610  18.4407730  39.5272780  72.3076780
  17.8724630  39.0791030  71.6812690  19.1496730  39.8865560  71.7741930
  26.8185350  32.4071220  86.7643550  27.1431120  31.6760880  87.2901530
  26.8541860  32.0884860  85.8624540  13.5176910  43.4284800  86.1843510
  13.1331700  42.7878470  86.7826470  13.8289100  44.1320920  86.7538240
  19.6674050  40.2761340  81.6652130  20.0344180  39.8019910  82.4113470
  19.4779110  41.1502910  82.0060470  12.5314540  35.0205030  77.7945600
  12.2461460  34.6560700  78.6324220  12.4693400  34.2885490  77.1808740
  17.4573420  39.3169980  83.9836340  17.1530490  40.1961960  84.2086700
  18.4119880  39.3769770  84.0193780  15.9855210  43.5230970  74.5803190
  15.2117470  42.9828590  74.4201910  16.7149840  43.0037580  74.2420950
  26.7443190  42.5196330  80.3729580  27.4642310  43.0151620  79.9825690
  26.5425010  41.8414220  79.7283450  22.2053130  33.9134290  74.5158970
  21.3917740  33.4147460  74.4404280  22.0115080  34.7532540  74.0995320
  22.1261990  42.5905390  86.2598580  22.0599300  41.6701060  86.0056170
  21.4967130  42.6880830  86.9743220  24.9201520  38.2853940  72.8121130
  25.8081140  38.5971170  72.6372470  24.8906610  37.4126190  72.4201710
  16.0292610  43.1911350  78.2182000  16.5471280  42.3879610  78.1638890
  15.5776630  43.1290490  79.0598830  20.9162110  44.4577630  73.4909300
  21.2577810  45.2019860  72.9952620  20.0874820  44.7708750  73.8534130
  13.5137150  40.1572720  85.1307700  13.1552090  40.8226570  85.7181040
  13.2191710  39.3256270  85.5020320  16.7150270  40.6156960  88.0147250
  16.4150410  40.7614140  87.1175070  17.4861510  40.0562250  87.9220640
  22.0578720  45.4125960  86.0102380  22.0723260  44.4806920  85.7921290
  21.3503820  45.4985720  86.6492150  27.1915790  39.5965780  72.2800990
  27.1079510  40.0280000  71.4297430  27.9109980  40.0564130  72.7127810
  28.2689930  42.0533300  85.3570960  27.5438120  42.6462080  85.1600350
  28.7965390  42.0456840  84.5584330  23.7989520  43.7793470  78.8554810
  24.1513340  43.1821600  78.1956180  22.9151850  43.4537700  79.0263060
  19.8852800  44.5391160  76.2625220  20.5723930  45.0860370  76.6432810
  19.0985220  45.0831890  76.2974830  12.0245200  40.1563980  71.7542300
  12.8940050  40.4388780  72.0378220  11.5335520  40.9699850  71.6391110
  19.1880010  41.5437190  75.8750580  19.6442790  42.3542440  76.1010770
  18.8368220  41.2260330  76.7069070  21.4912620  47.0543530  83.1042880
  22.1354840  47.2602910  83.7816300  21.8542060  46.2931930  82.6513730
  15.0891790  31.8874840  76.3473100  14.9606420  31.8792740  77.2958020
  14.2653810  32.2257930  75.9964110  22.7644700  45.0575880  81.8220330
  23.4066930  44.3569040  81.9352500  23.2894050  45.8374320  81.6417220
  24.5382320  45.8570780  85.0256390  24.8738560  46.4437470  85.7034310
  23.6182660  45.7263490  85.2554180  12.3916450  49.3691360  72.3203930
  12.7514090  49.9680700  71.6661200  12.2508790  49.9151250  73.0938960
  12.0885720  33.6465960  85.8079800  11.3744240  33.8462880  86.4132410
  12.5080760  32.8705530  86.1794600  12.3758310  47.6346220  86.7946330
  12.4849430  46.6940960  86.6541720  11.7238870  47.9000970  86.1460060
  20.3670900  45.9062110  88.1944450  20.0467770  45.1871350  88.7390140
  19.6929260  46.5817180  88.2680510  18.4085070  46.7522560  73.1377600
  18.3995170  47.4852250  72.5222110  17.4883430  46.5054140  73.2304560
  14.0091710  41.9737450  73.8824360  13.4019660  42.7136350  73.8919660
  14.4841060  42.0636810  73.0562560  23.5824500  36.1388270  83.5581250
  23.9505320  35.3183480  83.8860820  22.7222700  36.1990160  83.9736900
  26.9486530  35.0945210  74.3668810  26.3199690  35.1990880  73.6527040
  26.4538450  35.3141990  75.1562690  18.9170560  37.3731160  75.7826690
  18.2086710  37.8417500  76.2240300  19.2015040  36.7153170  76.4171880
  20.5426490  38.7927860  83.7819220  21.0411740  39.2673680  84.4471070
  20.6849440  37.8691380  83.9889250  22.9485990  34.0981820  77.2222480
  22.8253770  34.1167950  76.2731990  23.8970550  34.1460760  77.3420880
  20.0362780  49.3337120  76.4950460  20.2904280  49.2958510  75.5729830
  19.0875260  49.2070450  76.4878710  17.1205580  35.6816240  73.1577400
  17.9696110  36.1186390  73.0917590  16.7536850  35.9936500  73.9849460
  27.7493350  35.0095820  84.6247610  27.2466950  35.7501220  84.9641420
  28.5650010  35.3979820  84.3084400  26.0415360  40.2529000  78.0708970
  25.1005500  40.2679230  78.2456660  26.3559430  39.4664960  78.5169270
  16.0197000  41.9348600  71.6312930  16.7860270  41.8229960  72.1938360
  16.0971690  41.2386570  70.9789700  14.7143760  39.3673670  72.3145820
  14.7947350  38.4201180  72.4263220  15.6063510  39.6980550  72.4206480
  15.5158470  49.5169060  79.4180360  16.2520950  48.9684520  79.6888930
  15.8999390  50.3825070  79.2786350  12.4003950  45.5842630  75.2921870
  11.4743730  45.8263770  75.2827280  12.8660380  46.4116890  75.1706620
  14.5216750  48.7015130  88.6065940  15.3229480  49.0227180  89.0201340
  14.0068570  48.3410710  89.3285850  18.6260780  48.6899370  71.2405930
  19.4189390  48.9788200  70.7887720  18.1065130  48.2591540  70.5618410
  23.3581380  44.8095000  88.5541350  22.7519540  44.8326600  87.8137100
  23.0535490  44.0778040  89.0908600  24.7881750  48.5375290  87.1650760
  25.7403500  48.4533310  87.1151000  24.6409970  49.2017000  87.8384550
  12.2414560  41.1888590  87.5501990  12.7453580  40.6095870  88.1218220
  11.5021980  41.4728820  88.0878360  19.1438180  43.9102780  71.1048280
  19.0388820  43.2955130  71.8309660  18.9762400  43.3868670  70.3211290
  19.2952500  42.5959580  87.0837510  18.5298170  43.1644580  86.9992180
  19.4768460  42.3035790  86.1905740  22.3840910  42.9722810  71.7090270
  21.8351010  43.4192110  72.3533010  23.0060170  42.4672060  72.2327940
  26.4375850  44.3264910  87.6412530  27.1785320  44.6640670  87.1379990
  25.6748530  44.4956970  87.0882300  14.2737640  39.3318180  88.4452060
  14.3142980  39.0332050  89.3537290  15.1283140  39.7325790  88.2859580
  18.0516030  41.9313730  73.6055570  18.4732450  41.7653600  74.4486960
  18.1766870  41.1213960  73.1110710  16.2143450  37.9110280  86.4126550
  15.6839910  37.4201230  85.7849890  16.8831520  38.3394480  85.8784480
  20.5643670  40.9551340  70.8532670  21.0849330  40.2400360  70.4873820
  21.2112070  41.5937210  71.1533180  25.1121510  42.3779740  86.1767740
  25.5262530  42.5324820  87.0258160  24.1772510  42.5034960  86.3393520
  25.5843680  39.7175900  88.1806890  26.1664450  38.9628220  88.0927370
  25.7605450  40.2483340  87.4038370  16.7015750  34.8772650  86.4923840
  16.6072620  34.2593400  85.7674710  16.1213140  35.6038940  86.2653750
  19.4677190  33.4345890  83.5251230  19.0194490  33.4570150  82.6796780
  18.8342390  33.0364910  84.1221530  19.8736740  42.3300220  84.1463670
  20.2924850  43.1732950  83.9739910  18.9545370  42.4672260  83.9170450
  22.2100640  40.0616400  85.5301510  22.3296850  39.4657540  86.2696350
  23.0694640  40.0986090  85.1102810  24.5488540  40.6153590  84.1064020
  24.0223760  41.1396210  83.5029160  24.8919880  41.2480980  84.7373750
  16.9474930  38.0046960  70.5513730  16.7463990  37.1414320  70.9127070
  16.7766980  37.9180320  69.6135330  17.7244160  48.6353230  85.2621400
  17.1865250  49.3599290  84.9430100  17.9778120  48.1583570  84.4718740
  18.9769410  36.6037750  86.7877330  19.5669100  36.2953600  87.4755150
  18.1589650  36.1317500  86.9437230  23.7962840  36.2203560  87.0210350
  23.1078360  35.5585100  86.9560340  24.5168860  35.7741830  87.4658810
  24.4263240  32.8155190  73.0800610  24.7065530  31.9723090  73.4360030
  23.6528970  33.0478300  73.5939360  15.7457730  35.1047580  70.5391610
  16.0483630  35.1115010  69.6310760  16.4852320  34.7545440  71.0359270
  20.5806370  49.8704440  85.5208050  20.5065070  50.7739580  85.8280420
  19.6785210  49.5516340  85.4930120  18.9642660  34.0482200  71.5247810
  18.6164660  33.3706190  70.9450260  19.1655430  33.5871710  72.3391200
  14.7687860  44.4090000  71.3721410  15.2062730  44.9519670  72.0278990
  15.2535590  43.5836950  71.3817750  11.9833660  47.1979030  78.8241670
  12.3136670  46.3300090  78.5920310  12.4124660  47.4037550  79.6546630
  16.5795580  45.5288040  76.4843640  16.2791120  45.4053010  77.3847550
  16.4733070  44.6696630  76.0759370  12.4723870  48.0649620  81.5623300
  12.0354860  48.2450420  82.3947450  13.0401550  48.8224240  81.4205020
  28.1086050  47.5666620  85.8500610  27.5088040  47.6259180  85.1064530
  28.2379950  46.6271600  85.9797460  12.3048300  40.5769850  77.9212180
  11.6497140  40.3081490  77.2771880  13.1426250  40.4674330  77.4714160
  26.7937690  44.2918600  83.9476770  25.9797530  44.7215760  84.2102560
  27.2011890  44.9037010  83.3345820  25.2538740  35.3711140  72.1430670
  25.6723620  35.1842120  71.3027330  24.9474800  34.5190190  72.4533600
  28.7528470  40.2835280  75.8406470  28.3772070  39.5163210  75.4087760
  28.0231590  40.6657980  76.3281400  13.3424230  40.9622420  82.4615520
  13.7097270  40.8749820  83.3411540  12.7735050  40.1988970  82.3622380
  28.1428090  39.4306800  85.4745990  27.9114180  39.2019550  84.5743940
  28.4032640  40.3506350  85.4290880  12.8940230  37.8731510  86.3673940
  11.9996280  37.8398270  86.7067650  13.4337780  38.0718300  87.1325190
  26.5816160  34.6563230  88.2525690  27.4586340  34.6646630  88.6359690
  26.5937000  33.9194070  87.6418040  11.5186380  37.7868780  73.8637510
  10.6150460  38.0498980  73.6889170  12.0027000  38.0579950  73.0837470
  28.0279430  38.5092770  79.1413710  28.5516910  38.0155420  78.5103880
  28.6138850  38.6443130  79.8861280  28.2069150  38.5932640  82.6633260
  27.2571860  38.5596180  82.7778250  28.3882160  39.5032750  82.4283030
  14.0613590  36.8434320  71.7731890  14.7705290  36.4217540  71.2879170
  13.3453530  36.9109550  71.1415240  13.7087750  32.8973650  70.8134540
  14.4315880  33.4382590  71.1315760  13.9812270  32.6237070  69.9376080
  27.5179400  37.7666120  75.0806120  28.0138520  37.5336990  75.8655000
  27.3195470  36.9277960  74.6643760  13.3979940  32.1479840  80.7157160
  14.0456130  31.5977220  80.2752320  13.8181780  32.4022990  81.5372970
  28.9466560  36.4027070  77.6143800  28.8365840  36.2483110  78.5526070
  29.7074150  35.8748010  77.3719210  27.2932280  32.3421200  84.0726800
  27.9304500  32.9555340  84.4385990  27.4407170  32.3781860  83.1276030
  29.8356830  34.2334990  70.8549940  30.7606140  34.1016170  70.6468230
  29.8132620  34.3127810  71.8086390  29.9095320  35.0045650  73.4806650
  29.1146820  34.9390770  74.0099560  30.1138600  35.9396290  73.4692000
  13.1511940  32.3035510  83.4582480  12.8026760  32.7599330  84.2240660
  12.8199640  31.4092640  83.5404910  14.7576310  45.4755110  87.6235670
  14.7145940  45.1048020  88.5050130  14.8887320  46.4132680  87.7637490
  18.4582340  47.0314700  83.2245390  18.2173700  47.2989260  82.3375910
  19.3984980  47.2020430  83.2796250  20.6636760  33.4947390  86.9801900
  20.6025650  34.0869220  87.7297310  21.6037140  33.3873350  86.8352160
  23.3011320  33.1517450  86.6194190  23.9151730  33.4696740  85.9575270
  23.8460880  32.6666040  87.2390050  29.7186500  49.0509080  84.0256030
  29.2244780  49.4477950  83.3083160  29.1099790  48.4258290  84.4193310
  13.8232580  31.8311710  86.7333250  14.3715570  31.6499760  85.9699360
  13.8887890  31.0405820  87.2689560  14.5964340  48.4217360  84.7433450
  14.0024660  48.2902060  85.4823490  14.5888180  47.5855500  84.2775550
  24.0419360  31.7149590  82.9463480  23.1679200  32.0484700  82.7436410
  23.9330110  31.2422770  83.7715350  24.9491340  33.9220460  84.3305200
  24.6204700  33.1072220  83.9506930  25.8973640  33.8790270  84.2070890
  27.4025950  49.6932500  81.3042770  26.9428920  50.4448310  80.9300790
  26.7738410  48.9738970  81.2457570  14.2276570  45.7875740  83.6941490
  13.5010630  45.1681030  83.6267440  14.2885720  46.1816350  82.8239570
  17.8321670  48.0020740  80.4790900  18.3486690  47.3908100  79.9539160
  18.4819050  48.5049520  80.9701910  20.5717170  48.8929230  81.3059880
  20.8594980  48.6383530  80.4292890  21.0840390  48.3406590  81.8965450
  21.7894180  32.6319430  81.8856390  21.0065970  33.1064930  82.1653150
  21.4957110  31.7274260  81.7769570  26.3415250  33.3342530  79.9305480
  26.7823340  33.2787630  79.0827080  26.0722840  34.2500540  80.0015660
  28.2053820  32.9657770  77.9414300  28.1442220  32.0218990  77.7945320
  28.9845850  33.0737860  78.4867760  12.5106570  49.1050130  76.9038250
  12.3428610  48.4720810  77.6020140  11.6441080  49.3109530  76.5532440
  13.1334590  32.9366910  74.4070110  13.8913950  33.0495790  73.8334140
  12.6711760  33.7736110  74.3613540  19.6748400  35.0506180  77.3972420
  18.8622910  34.6763070  77.0568300  20.1790040  34.2951260  77.6993610
  24.1773380  31.7148630  78.6355490  24.7802750  32.2868840  79.1104010
  23.4366370  32.2788070  78.4129390  27.3207980  32.1170190  73.9095770
  27.5158610  33.0153640  74.1763200  26.5337850  31.8857270  74.4028720
  14.1169270  47.7983360  74.3488390  13.5916890  48.1791390  73.6450350
  14.0413850  48.4234130  75.0698100  15.5059740  33.4630960  72.9472080
  16.0352500  32.6760760  72.8180030  16.1388060  34.1422150  73.1807610
  17.6997580  33.2006100  76.0017470  17.0700320  32.4993410  76.1687600
  17.1602720  33.9610230  75.7850630  20.6389530  49.8145330  88.6728080
  21.5656840  49.5789600  88.7164040  20.6239960  50.6417330  88.1914110
  17.8253140  32.4790080  88.4369960  17.5437410  32.9823680  87.6730780
  18.2072840  31.6811830  88.0712090  16.7162240  49.7465740  73.2237640
  17.4481060  49.4625020  72.6761530  16.9755910  49.5079020  74.1137020
  15.8777030  45.8630470  73.2283970  15.2485910  46.3315570  73.7769800
  15.9924860  45.0179690  73.6630160  24.4268600  31.8943660  89.0150430
  24.3134050  32.2138270  89.9101950  25.2438340  32.2956170  88.7187710
  27.2067090  49.0415190  88.4969120  27.9992410  48.5464420  88.2895080
  27.5000240  49.7205330  89.1044730  15.4810620  42.0034960  62.1370200
  14.6495500  41.7483670  62.5366710  16.0891600  42.0745730  62.8728120
  15.4611880  46.0375050  62.3328220  15.7639920  45.1472790  62.1538440
  16.2055470  46.5945270  62.1050470  13.8902570  36.9636850  55.9212590
  13.0019270  37.3052820  55.8192470  14.1743760  36.7637170  55.0293420
  11.8535580  39.5642500  61.8052290  12.4251690  38.7964700  61.8055930
  11.8537120  39.8631260  60.8958900  21.7115530  48.3833350  59.6597560
  21.0926970  48.8390850  59.0892000  22.5667310  48.5384810  59.2587260
  13.0960450  34.9726860  63.5921220  12.9163290  34.0752610  63.8723980
  12.6940530  35.5198730  64.2668170  21.9358950  37.1742720  61.4933530
  22.3123770  36.3014600  61.3807200  21.8378460  37.5101420  60.6023970
  16.0663960  35.5468350  56.9550970  16.1730710  36.4472080  57.2619730
  15.1556320  35.4986320  56.6645620  13.7147120  37.4687360  62.2003560
  14.3957230  37.7325730  62.8190960  13.3995170  36.6288230  62.5341570
  17.9071690  38.5154720  61.2876150  18.4149910  39.0135690  61.9281170
  18.4384930  37.7389920  61.1115510  16.1907790  33.1553280  65.5539570
  16.1926230  33.6725670  64.7485470  15.3612100  32.6783460  65.5309500
  17.4410640  42.7948460  63.7313070  17.1080020  43.4217380  64.3734140
  17.6177320  43.3210340  62.9514740  25.9544550  36.6093540  61.1989410
  25.2500120  36.8978430  61.7792520  26.3156710  37.4193650  60.8388970
  15.8723120  34.8663240  63.5610020  16.2139930  35.7105290  63.2663890
  14.9338930  35.0146980  63.6775360  16.6529740  44.7629260  65.5462250
  17.2703740  45.4380340  65.2646700  15.7922860  45.1717240  65.4549750
  11.9462080  43.9529120  54.4269100  11.5690060  44.4416220  53.6954000
  12.2035150  44.6254400  55.0575630  19.5551010  32.3545510  59.8854610
  19.8625990  31.7992400  59.1690110  18.6251710  32.4889970  59.7027600
  25.4155620  38.1599180  64.5415790  25.0026800  38.9852890  64.7955780
  24.6831570  37.5744220  64.3492150  17.5488410  40.9459080  59.4034460
  17.1445410  40.2336330  58.9080360  17.6351530  40.6012320  60.2922500
  18.0170110  44.6326640  61.5673670  17.7198400  44.0272110  60.8881450
  18.9669930  44.6703950  61.4563030  16.2617030  37.7202290  63.1833500
  16.8131620  37.8297630  62.4086750  16.7760540  38.0939890  63.8988730
  17.1088540  44.3708330  68.2181470  16.2117070  44.5948300  68.4654870
  17.1341410  44.4943270  67.2692870  15.9359760  41.2421650  66.7938840
  15.7967530  42.1144450  67.1626240  15.0541120  40.8994460  66.6486780
  22.2589140  46.1597520  58.1003970  22.6985050  46.9021850  57.6859360
  22.1976030  46.4024090  59.0242930  17.7340110  47.1843350  69.0023990
  17.7055540  47.5886300  68.1352420  17.5705080  46.2553710  68.8395590
  14.2493040  39.8404060  56.9041110  14.1290640  40.5666150  56.2922380
  13.9393930  39.0706970  56.4269020  11.8878410  43.0119200  62.7109750
  11.9658830  43.1467970  61.7665470  12.5020090  42.3035090  62.9037870
  13.1326040  44.7119390  59.1215930  12.7254120  44.8533980  58.2669530
  14.0239050  44.4279550  58.9187140  17.4047700  48.9265170  57.2338600
  17.2290180  48.0100710  57.0206400  16.5503440  49.2852460  57.4736400
  28.9412190  37.2115760  68.4237910  28.3256460  37.7195430  67.8953370
  28.6208610  36.3114090  68.3663850  11.9437930  44.0533370  65.2504210
  12.1068970  43.5838730  64.4323580  12.4090380  43.5456930  65.9153050
  16.7156700  33.1839130  60.2864780  16.2724850  33.9648670  59.9549300
  17.2741690  33.5069020  60.9935720  21.0026510  36.0507650  65.8900100
  20.5405880  36.2590670  66.7020040  20.6004620  35.2367000  65.5870770
  26.0031020  37.2716600  67.0196760  25.1524610  36.9722350  67.3405830
  25.8432810  37.5158610  66.1080580  23.0980730  38.7718350  69.1195550
  23.4234140  37.9382100  68.7797780  23.8861060  39.2946870  69.2673880
  19.8315520  32.8049830  55.1670610  19.2069700  32.8009700  55.8923920
  19.7445640  31.9380790  54.7706580  18.7532600  33.7286460  62.1454380
  19.0504930  34.6349290  62.0646400  19.3018160  33.2405240  61.5313950
  16.5070920  38.3072700  58.0146030  16.2811840  38.0909870  58.9192650
  15.7263450  38.7401160  57.6692000  18.9470130  39.2058280  68.6806300
  18.8513730  38.2653010  68.5306700  19.7902110  39.4273350  68.2854370
  14.0780670  35.6171950  66.8340080  13.6844060  36.4647160  67.0412860
  13.3899070  34.9798320  67.0248720  20.6525720  35.7006920  69.9036820
  19.9624040  35.5079120  70.5382910  21.3958020  35.9841560  70.4361120
  11.3797720  33.5400410  60.8670160  11.0910770  34.1103270  61.5795140
  12.1243480  33.0604860  61.2301390  11.5667950  37.4820530  52.0772880
  11.4842620  38.4251290  52.2187870  11.2151010  37.3395440  51.1985230
  19.3666080  36.2159560  61.1443230  19.3702140  35.7749510  60.2947770
  20.2617200  36.5376890  61.2515050  15.2168460  36.0986050  60.1037440
  14.8768510  36.5761280  60.8604490  14.4545780  35.6451170  59.7438540
  23.3914600  34.9939040  62.1513680  23.4087340  35.4447690  62.9955530
  23.1430180  34.0944680  62.3647120  26.8185350  32.4071220  67.9900060
  27.1431120  31.6760880  68.5158040  26.8541860  32.0884860  67.0881050
  13.5176910  43.4284800  67.4100020  13.1331700  42.7878470  68.0082980
  13.8289100  44.1320920  67.9794750  12.5314540  35.0205030  59.0202110
  12.2461460  34.6560700  59.8580730  12.4693400  34.2885490  58.4065250
  17.4573420  39.3169980  65.2092850  17.1530490  40.1961960  65.4343210
  18.4119880  39.3769770  65.2450290  15.9855210  43.5230970  55.8059700
  15.2117470  42.9828590  55.6458420  16.7149840  43.0037580  55.4677460
  22.1261990  42.5905390  67.4855090  22.0599300  41.6701060  67.2312680
  21.4967130  42.6880830  68.1999730  16.0292610  43.1911350  59.4438510
  16.5471280  42.3879610  59.3895400  15.5776630  43.1290490  60.2855340
  20.9162110  44.4577630  54.7165810  21.2577810  45.2019860  54.2209130
  20.0874820  44.7708750  55.0790640  13.5137150  40.1572720  66.3564210
  13.1552090  40.8226570  66.9437550  13.2191710  39.3256270  66.7276830
  16.7150270  40.6156960  69.2403760  16.4150410  40.7614140  68.3431580
  17.4861510  40.0562250  69.1477150  22.0578720  45.4125960  67.2358890
  22.0723260  44.4806920  67.0177800  21.3503820  45.4985720  67.8748660
  12.0245200  40.1563980  52.9798810  12.8940050  40.4388780  53.2634730
  11.5335520  40.9699850  52.8647620  21.4912620  47.0543530  64.3299390
  22.1354840  47.2602910  65.0072810  21.8542060  46.2931930  63.8770240
  15.0891790  31.8874840  57.5729610  14.9606420  31.8792740  58.5214530
  14.2653810  32.2257930  57.2220620  12.3916450  49.3691360  53.5460440
  12.7514090  49.9680700  52.8917710  12.2508790  49.9151250  54.3195470
  12.0885720  33.6465960  67.0336310  11.3744240  33.8462880  67.6388920
  12.5080760  32.8705530  67.4051110  12.3758310  47.6346220  68.0202840
  12.4849430  46.6940960  67.8798230  11.7238870  47.9000970  67.3716570
  20.3670900  45.9062110  69.4200960  20.0467770  45.1871350  69.9646650
  19.6929260  46.5817180  69.4937020  18.4085070  46.7522560  54.3634110
  18.3995170  47.4852250  53.7478620  17.4883430  46.5054140  54.4561070
  14.0091710  41.9737450  55.1080870  13.4019660  42.7136350  55.1176170
  14.4841060  42.0636810  54.2819070  23.5824500  36.1388270  64.7837760
  23.9505320  35.3183480  65.1117330  22.7222700  36.1990160  65.1993410
  18.9170560  37.3731160  57.0083200  18.2086710  37.8417500  57.4496810
  19.2015040  36.7153170  57.6428390  20.5426490  38.7927860  65.0075730
  21.0411740  39.2673680  65.6727580  20.6849440  37.8691380  65.2145760
  20.0362780  49.3337120  57.7206970  20.2904280  49.2958510  56.7986340
  19.0875260  49.2070450  57.7135220  27.7493350  35.0095820  65.8504120
  27.2466950  35.7501220  66.1897930  28.5650010  35.3979820  65.5340910
  16.0197000  41.9348600  52.8569440  16.7860270  41.8229960  53.4194870
  16.0971690  41.2386570  52.2046210  14.7143760  39.3673670  53.5402330
  14.7947350  38.4201180  53.6519730  15.6063510  39.6980550  53.6462990
  15.5158470  49.5169060  60.6436870  16.2520950  48.9684520  60.9145440
  15.8999390  50.3825070  60.5042860  12.4003950  45.5842630  56.5178380
  11.4743730  45.8263770  56.5083790  12.8660380  46.4116890  56.3963130
  14.5216750  48.7015130  69.8322450  15.3229480  49.0227180  70.2457850
  14.0068570  48.3410710  70.5542360  18.6260780  48.6899370  52.4662440
  19.4189390  48.9788200  52.0144230  18.1065130  48.2591540  51.7874920
  23.3581380  44.8095000  69.7797860  22.7519540  44.8326600  69.0393610
  23.0535490  44.0778040  70.3165110  12.2414560  41.1888590  68.7758500
  12.7453580  40.6095870  69.3474730  11.5021980  41.4728820  69.3134870
  19.1438180  43.9102780  52.3304790  19.0388820  43.2955130  53.0566170
  18.9762400  43.3868670  51.5467800  19.2952500  42.5959580  68.3094020
  18.5298170  43.1644580  68.2248690  19.4768460  42.3035790  67.4162250
  14.2737640  39.3318180  69.6708570  14.3142980  39.0332050  70.5793800
  15.1283140  39.7325790  69.5116090  18.0516030  41.9313730  54.8312080
  18.4732450  41.7653600  55.6743470  18.1766870  41.1213960  54.3367220
  16.2143450  37.9110280  67.6383060  15.6839910  37.4201230  67.0106400
  16.8831520  38.3394480  67.1040990  25.1121510  42.3779740  67.4024250
  25.5262530  42.5324820  68.2514670  24.1772510  42.5034960  67.5650030
  25.5843680  39.7175900  69.4063400  26.1664450  38.9628220  69.3183880
  25.7605450  40.2483340  68.6294880  16.7015750  34.8772650  67.7180350
  16.6072620  34.2593400  66.9931220  16.1213140  35.6038940  67.4910260
  19.4677190  33.4345890  64.7507740  19.0194490  33.4570150  63.9053290
  18.8342390  33.0364910  65.3478040  19.8736740  42.3300220  65.3720180
  20.2924850  43.1732950  65.1996420  18.9545370  42.4672260  65.1426960
  22.2100640  40.0616400  66.7558020  22.3296850  39.4657540  67.4952860
  23.0694640  40.0986090  66.3359320  24.5488540  40.6153590  65.3320530
  24.0223760  41.1396210  64.7285670  24.8919880  41.2480980  65.9630260
  16.9474930  38.0046960  51.7770240  16.7463990  37.1414320  52.1383580
  16.7766980  37.9180320  50.8391840  17.7244160  48.6353230  66.4877910
  17.1865250  49.3599290  66.1686610  17.9778120  48.1583570  65.6975250
  18.9769410  36.6037750  68.0133840  19.5669100  36.2953600  68.7011660
  18.1589650  36.1317500  68.1693740  23.7962840  36.2203560  68.2466860
  23.1078360  35.5585100  68.1816850  24.5168860  35.7741830  68.6915320
  15.7457730  35.1047580  51.7648120  16.0483630  35.1115010  50.8567270
  16.4852320  34.7545440  52.2615780  20.5806370  49.8704440  66.7464560
  20.5065070  50.7739580  67.0536930  19.6785210  49.5516340  66.7186630
  21.1291700  49.0362950  54.3690920  22.0242490  49.3747920  54.3909680
  21.1609330  48.3142360  53.7415200  14.7687860  44.4090000  52.5977920
  15.2062730  44.9519670  53.2535500  15.2535590  43.5836950  52.6074260
  11.9833660  47.1979030  60.0498180  12.3136670  46.3300090  59.8176820
  12.4124660  47.4037550  60.8803140  16.5795580  45.5288040  57.7100150
  16.2791120  45.4053010  58.6104060  16.4733070  44.6696630  57.3015880
  12.4723870  48.0649620  62.7879810  12.0354860  48.2450420  63.6203960
  13.0401550  48.8224240  62.6461530  12.3048300  40.5769850  59.1468690
  11.6497140  40.3081490  58.5028390  13.1426250  40.4674330  58.6970670
  13.3424230  40.9622420  63.6872030  13.7097270  40.8749820  64.5668050
  12.7735050  40.1988970  63.5878890  12.8940230  37.8731510  67.5930450
  11.9996280  37.8398270  67.9324160  13.4337780  38.0718300  68.3581700
  26.5816160  34.6563230  69.4782200  27.4586340  34.6646630  69.8616200
  26.5937000  33.9194070  68.8674550  11.5186380  37.7868780  55.0894020
  10.6150460  38.0498980  54.9145680  12.0027000  38.0579950  54.3093980
  14.0613590  36.8434320  52.9988400  14.7705290  36.4217540  52.5135680
  13.3453530  36.9109550  52.3671750  13.7087750  32.8973650  52.0391050
  14.4315880  33.4382590  52.3572270  13.9812270  32.6237070  51.1632590
  13.3979940  32.1479840  61.9413670  14.0456130  31.5977220  61.5008830
  13.8181780  32.4022990  62.7629480  27.2932280  32.3421200  65.2983310
  27.9304500  32.9555340  65.6642500  27.4407170  32.3781860  64.3532540
  13.1511940  32.3035510  64.6838990  12.8026760  32.7599330  65.4497170
  12.8199640  31.4092640  64.7661420  14.7576310  45.4755110  68.8492180
  14.7145940  45.1048020  69.7306640  14.8887320  46.4132680  68.9894000
  18.4582340  47.0314700  64.4501900  18.2173700  47.2989260  63.5632420
  19.3984980  47.2020430  64.5052760  20.6636760  33.4947390  68.2058410
  20.6025650  34.0869220  68.9553820  21.6037140  33.3873350  68.0608670
  23.3011320  33.1517450  67.8450700  23.9151730  33.4696740  67.1831780
  23.8460880  32.6666040  68.4646560  13.8232580  31.8311710  67.9589760
  14.3715570  31.6499760  67.1955870  13.8887890  31.0405820  68.4946070
  14.5964340  48.4217360  65.9689960  14.0024660  48.2902060  66.7080000
  14.5888180  47.5855500  65.5032060  24.0419360  31.7149590  64.1719990
  23.1679200  32.0484700  63.9692920  23.9330110  31.2422770  64.9971860
  24.9491340  33.9220460  65.5561710  24.6204700  33.1072220  65.1763440
  25.8973640  33.8790270  65.4327400  14.2276570  45.7875740  64.9198000
  13.5010630  45.1681030  64.8523950  14.2885720  46.1816350  64.0496080
  17.8321670  48.0020740  61.7047410  18.3486690  47.3908100  61.1795670
  18.4819050  48.5049520  62.1958420  20.5717170  48.8929230  62.5316390
  20.8594980  48.6383530  61.6549400  21.0840390  48.3406590  63.1221960
  21.7894180  32.6319430  63.1112900  21.0065970  33.1064930  63.3909660
  21.4957110  31.7274260  63.0026080  26.3415250  33.3342530  61.1561990
  26.7823340  33.2787630  60.3083590  26.0722840  34.2500540  61.2272170
  28.2053820  32.9657770  59.1670810  28.1442220  32.0218990  59.0201830
  28.9845850  33.0737860  59.7124270  12.5106570  49.1050130  58.1294760
  12.3428610  48.4720810  58.8276650  11.6441080  49.3109530  57.7788950
  13.1334590  32.9366910  55.6326620  13.8913950  33.0495790  55.0590650
  12.6711760  33.7736110  55.5870050  19.6748400  35.0506180  58.6228930
  18.8622910  34.6763070  58.2824810  20.1790040  34.2951260  58.9250120
  24.1773380  31.7148630  59.8612000  24.7802750  32.2868840  60.3360520
  23.4366370  32.2788070  59.6385900  14.1169270  47.7983360  55.5744900
  13.5916890  48.1791390  54.8706860  14.0413850  48.4234130  56.2954610
  15.5059740  33.4630960  54.1728590  16.0352500  32.6760760  54.0436540
  16.1388060  34.1422150  54.4064120  17.6997580  33.2006100  57.2273980
  17.0700320  32.4993410  57.3944110  17.1602720  33.9610230  57.0107140
  20.6389530  49.8145330  69.8984590  21.5656840  49.5789600  69.9420550
  20.6239960  50.6417330  69.4170620  17.8253140  32.4790080  69.6626470
  17.5437410  32.9823680  68.8987290  18.2072840  31.6811830  69.2968600
  16.7162240  49.7465740  54.4494150  17.4481060  49.4625020  53.9018040
  16.9755910  49.5079020  55.3393530  15.8777030  45.8630470  54.4540480
  15.2485910  46.3315570  55.0026310  15.9924860  45.0179690  54.8886670
  24.4268600  31.8943660  70.2406940  24.3134050  32.2138270  71.1358460
  25.2438340  32.2956170  69.9444220  15.4810620  42.0034960  43.3626710
  14.6495500  41.7483670  43.7623220  16.0891600  42.0745730  44.0984630
  15.4611880  46.0375050  43.5584730  15.7639920  45.1472790  43.3794950
  16.2055470  46.5945270  43.3306980  13.8902570  36.9636850  37.1469100
  13.0019270  37.3052820  37.0448980  14.1743760  36.7637170  36.2549930
  11.8535580  39.5642500  43.0308800  12.4251690  38.7964700  43.0312440
  11.8537120  39.8631260  42.1215410  13.0960450  34.9726860  44.8177730
  12.9163290  34.0752610  45.0980490  12.6940530  35.5198730  45.4924680
  13.7147120  37.4687360  43.4260070  14.3957230  37.7325730  44.0447470
  13.3995170  36.6288230  43.7598080  17.9071690  38.5154720  42.5132660
  18.4149910  39.0135690  43.1537680  18.4384930  37.7389920  42.3372020
  16.1907790  33.1553280  46.7796080  16.1926230  33.6725670  45.9741980
  15.3612100  32.6783460  46.7566010  17.4410640  42.7948460  44.9569580
  17.1080020  43.4217380  45.5990650  17.6177320  43.3210340  44.1771250
  15.8723120  34.8663240  44.7866530  16.2139930  35.7105290  44.4920400
  14.9338930  35.0146980  44.9031870  16.6529740  44.7629260  46.7718760
  17.2703740  45.4380340  46.4903210  15.7922860  45.1717240  46.6806260
  11.9462080  43.9529120  35.6525610  11.5690060  44.4416220  34.9210510
  12.2035150  44.6254400  36.2832140  25.1066070  48.0712800  43.4018580
  25.1193230  47.6675090  42.5340840  24.5541290  48.8460090  43.2980010
  17.5488410  40.9459080  40.6290970  17.1445410  40.2336330  40.1336870
  17.6351530  40.6012320  41.5179010  18.0170110  44.6326640  42.7930180
  17.7198400  44.0272110  42.1137960  18.9669930  44.6703950  42.6819540
  16.2617030  37.7202290  44.4090010  16.8131620  37.8297630  43.6343260
  16.7760540  38.0939890  45.1245240  17.1088540  44.3708330  49.4437980
  16.2117070  44.5948300  49.6911380  17.1341410  44.4943270  48.4949380
  15.9359760  41.2421650  48.0195350  15.7967530  42.1144450  48.3882750
  15.0541120  40.8994460  47.8743290  17.7340110  47.1843350  50.2280500
  17.7055540  47.5886300  49.3608930  17.5705080  46.2553710  50.0652100
  14.2493040  39.8404060  38.1297620  14.1290640  40.5666150  37.5178890
  13.9393930  39.0706970  37.6525530  11.8878410  43.0119200  43.9366260
  11.9658830  43.1467970  42.9921980  12.5020090  42.3035090  44.1294380
  13.1326040  44.7119390  40.3472440  12.7254120  44.8533980  39.4926040
  14.0239050  44.4279550  40.1443650  22.9504920  48.8611300  47.2539490
  23.4649590  48.7719310  48.0561920  22.1074000  49.2071000  47.5467400
  17.4047700  48.9265170  38.4595110  17.2290180  48.0100710  38.2462910
  16.5503440  49.2852460  38.6992910  11.9437930  44.0533370  46.4760720
  12.1068970  43.5838730  45.6580090  12.4090380  43.5456930  47.1409560
  14.0780670  35.6171950  48.0596590  13.6844060  36.4647160  48.2669370
  13.3899070  34.9798320  48.2505230  11.3797720  33.5400410  42.0926670
  11.0910770  34.1103270  42.8051650  12.1243480  33.0604860  42.4557900
  11.5667950  37.4820530  33.3029390  11.4842620  38.4251290  33.4444380
  11.2151010  37.3395440  32.4241740  15.2168460  36.0986050  41.3293950
  14.8768510  36.5761280  42.0861000  14.4545780  35.6451170  40.9695050
  13.5176910  43.4284800  48.6356530  13.1331700  42.7878470  49.2339490
  13.8289100  44.1320920  49.2051260  12.5314540  35.0205030  40.2458620
  12.2461460  34.6560700  41.0837240  12.4693400  34.2885490  39.6321760
  17.4573420  39.3169980  46.4349360  17.1530490  40.1961960  46.6599720
  18.4119880  39.3769770  46.4706800  15.9855210  43.5230970  37.0316210
  15.2117470  42.9828590  36.8714930  16.7149840  43.0037580  36.6933970
  16.0292610  43.1911350  40.6695020  16.5471280  42.3879610  40.6151910
  15.5776630  43.1290490  41.5111850  13.5137150  40.1572720  47.5820720
  13.1552090  40.8226570  48.1694060  13.2191710  39.3256270  47.9533340
  16.7150270  40.6156960  50.4660270  16.4150410  40.7614140  49.5688090
  17.4861510  40.0562250  50.3733660  12.0245200  40.1563980  34.2055320
  12.8940050  40.4388780  34.4891240  11.5335520  40.9699850  34.0904130
  21.4912620  47.0543530  45.5555900  22.1354840  47.2602910  46.2329320
  21.8542060  46.2931930  45.1026750  22.7644700  45.0575880  44.2733350
  23.4066930  44.3569040  44.3865520  23.2894050  45.8374320  44.0930240
  12.3916450  49.3691360  34.7716950  12.7514090  49.9680700  34.1174220
  12.2508790  49.9151250  35.5451980  12.0885720  33.6465960  48.2592820
  11.3744240  33.8462880  48.8645430  12.5080760  32.8705530  48.6307620
  12.3758310  47.6346220  49.2459350  12.4849430  46.6940960  49.1054740
  11.7238870  47.9000970  48.5973080  20.3670900  45.9062110  50.6457470
  20.0467770  45.1871350  51.1903160  19.6929260  46.5817180  50.7193530
  18.4085070  46.7522560  35.5890620  18.3995170  47.4852250  34.9735130
  17.4883430  46.5054140  35.6817580  14.0091710  41.9737450  36.3337380
  13.4019660  42.7136350  36.3432680  14.4841060  42.0636810  35.5075580
  20.0362780  49.3337120  38.9463480  20.2904280  49.2958510  38.0242850
  19.0875260  49.2070450  38.9391730  16.0197000  41.9348600  34.0825950
  16.7860270  41.8229960  34.6451380  16.0971690  41.2386570  33.4302720
  14.7143760  39.3673670  34.7658840  14.7947350  38.4201180  34.8776240
  15.6063510  39.6980550  34.8719500  15.5158470  49.5169060  41.8693380
  16.2520950  48.9684520  42.1401950  15.8999390  50.3825070  41.7299370
  12.4003950  45.5842630  37.7434890  11.4743730  45.8263770  37.7340300
  12.8660380  46.4116890  37.6219640  14.5216750  48.7015130  51.0578960
  15.3229480  49.0227180  51.4714360  14.0068570  48.3410710  51.7798870
  18.6260780  48.6899370  33.6918950  19.4189390  48.9788200  33.2400740
  18.1065130  48.2591540  33.0131430  12.2414560  41.1888590  50.0015010
  12.7453580  40.6095870  50.5731240  11.5021980  41.4728820  50.5391380
  19.2952500  42.5959580  49.5350530  18.5298170  43.1644580  49.4505200
  19.4768460  42.3035790  48.6418760  14.2737640  39.3318180  50.8965080
  14.3142980  39.0332050  51.8050310  15.1283140  39.7325790  50.7372600
  16.2143450  37.9110280  48.8639570  15.6839910  37.4201230  48.2362910
  16.8831520  38.3394480  48.3297500  16.7015750  34.8772650  48.9436860
  16.6072620  34.2593400  48.2187730  16.1213140  35.6038940  48.7166770
  19.8736740  42.3300220  46.5976690  20.2924850  43.1732950  46.4252930
  18.9545370  42.4672260  46.3683470  17.7244160  48.6353230  47.7134420
  17.1865250  49.3599290  47.3943120  17.9778120  48.1583570  46.9231760
  20.5806370  49.8704440  47.9721070  20.5065070  50.7739580  48.2793440
  19.6785210  49.5516340  47.9443140  14.7687860  44.4090000  33.8234430
  15.2062730  44.9519670  34.4792010  15.2535590  43.5836950  33.8330770
  11.9833660  47.1979030  41.2754690  12.3136670  46.3300090  41.0433330
  12.4124660  47.4037550  42.1059650  16.5795580  45.5288040  38.9356660
  16.2791120  45.4053010  39.8360570  16.4733070  44.6696630  38.5272390
  12.4723870  48.0649620  44.0136320  12.0354860  48.2450420  44.8460470
  13.0401550  48.8224240  43.8718040  12.3048300  40.5769850  40.3725200
  11.6497140  40.3081490  39.7284900  13.1426250  40.4674330  39.9227180
  13.3424230  40.9622420  44.9128540  13.7097270  40.8749820  45.7924560
  12.7735050  40.1988970  44.8135400  12.8940230  37.8731510  48.8186960
  11.9996280  37.8398270  49.1580670  13.4337780  38.0718300  49.5838210
  11.5186380  37.7868780  36.3150530  10.6150460  38.0498980  36.1402190
  12.0027000  38.0579950  35.5350490  14.0613590  36.8434320  34.2244910
  14.7705290  36.4217540  33.7392190  13.3453530  36.9109550  33.5928260
  13.3979940  32.1479840  43.1670180  14.0456130  31.5977220  42.7265340
  13.8181780  32.4022990  43.9885990  29.8356830  34.2334990  33.3062960
  30.7606140  34.1016170  33.0981250  29.8132620  34.3127810  34.2599410
  26.8513740  49.0437200  39.9258060  27.4472810  48.7221770  39.2492480
  27.1091890  48.5709020  40.7171330  13.1511940  32.3035510  45.9095500
  12.8026760  32.7599330  46.6753680  12.8199640  31.4092640  45.9917930
  14.7576310  45.4755110  50.0748690  14.7145940  45.1048020  50.9563150
  14.8887320  46.4132680  50.2150510  18.4582340  47.0314700  45.6758410
  18.2173700  47.2989260  44.7888930  19.3984980  47.2020430  45.7309270
  13.8232580  31.8311710  49.1846270  14.3715570  31.6499760  48.4212380
  13.8887890  31.0405820  49.7202580  14.5964340  48.4217360  47.1946470
  14.0024660  48.2902060  47.9336510  14.5888180  47.5855500  46.7288570
  14.2276570  45.7875740  46.1454510  13.5010630  45.1681030  46.0780460
  14.2885720  46.1816350  45.2752590  17.8321670  48.0020740  42.9303920
  18.3486690  47.3908100  42.4052180  18.4819050  48.5049520  43.4214930
  20.5717170  48.8929230  43.7572900  20.8594980  48.6383530  42.8805910
  21.0840390  48.3406590  44.3478470  12.5106570  49.1050130  39.3551270
  12.3428610  48.4720810  40.0533160  11.6441080  49.3109530  39.0045460
  13.1334590  32.9366910  36.8583130  13.8913950  33.0495790  36.2847160
  12.6711760  33.7736110  36.8126560  14.1169270  47.7983360  36.8001410
  13.5916890  48.1791390  36.0963370  14.0413850  48.4234130  37.5211120
  20.6389530  49.8145330  51.1241100  21.5656840  49.5789600  51.1677060
  20.6239960  50.6417330  50.6427130  16.7162240  49.7465740  35.6750660
  17.4481060  49.4625020  35.1274550  16.9755910  49.5079020  36.5650040
  15.8777030  45.8630470  35.6796990  15.2485910  46.3315570  36.2282820
  15.9924860  45.0179690  36.1143180  15.4810620  42.0034960  24.5883220
  14.6495500  41.7483670  24.9879730  16.0891600  42.0745730  25.3241140
  15.4611880  46.0375050  24.7841240  15.7639920  45.1472790  24.6051460
  16.2055470  46.5945270  24.5563490  13.8902570  36.9636850  18.3725610
  13.0019270  37.3052820  18.2705490  14.1743760  36.7637170  17.4806440
  11.8535580  39.5642500  24.2565310  12.4251690  38.7964700  24.2568950
  11.8537120  39.8631260  23.3471920  21.7115530  48.3833350  22.1110580
  21.0926970  48.8390850  21.5405020  22.5667310  48.5384810  21.7100280
  20.9053780  44.3672340  23.7177620  20.8362060  43.4262280  23.5566750
  21.6673640  44.4573750  24.2900190  13.0960450  34.9726860  26.0434240
  12.9163290  34.0752610  26.3237000  12.6940530  35.5198730  26.7181190
  16.0663960  35.5468350  19.4063990  16.1730710  36.4472080  19.7132750
  15.1556320  35.4986320  19.1158640  13.7147120  37.4687360  24.6516580
  14.3957230  37.7325730  25.2703980  13.3995170  36.6288230  24.9854590
  17.9071690  38.5154720  23.7389170  18.4149910  39.0135690  24.3794190
  18.4384930  37.7389920  23.5628530  17.4410640  42.7948460  26.1826090
  17.1080020  43.4217380  26.8247160  17.6177320  43.3210340  25.4027760
  15.8723120  34.8663240  26.0123040  16.2139930  35.7105290  25.7176910
  14.9338930  35.0146980  26.1288380  16.6529740  44.7629260  27.9975270
  17.2703740  45.4380340  27.7159720  15.7922860  45.1717240  27.9062770
  11.9462080  43.9529120  16.8782120  11.5690060  44.4416220  16.1467020
  12.2035150  44.6254400  17.5088650  21.9300850  36.6911340  16.0694910
  20.9904520  36.8525300  16.1547370  22.2484110  37.4097020  15.5230900
  17.5488410  40.9459080  21.8547480  17.1445410  40.2336330  21.3593380
  17.6351530  40.6012320  22.7435520  18.0170110  44.6326640  24.0186690
  17.7198400  44.0272110  23.3394470  18.9669930  44.6703950  23.9076050
  16.2617030  37.7202290  25.6346520  16.8131620  37.8297630  24.8599770
  16.7760540  38.0939890  26.3501750  22.2589140  46.1597520  20.5516990
  22.6985050  46.9021850  20.1372380  22.1976030  46.4024090  21.4755950
  17.7340110  47.1843350  31.4537010  17.7055540  47.5886300  30.5865440
  17.5705080  46.2553710  31.2908610  27.7310900  32.4744260  14.8976790
  27.4183560  32.5671090  15.7975860  28.4923370  33.0525290  14.8474220
  14.2493040  39.8404060  19.3554130  14.1290640  40.5666150  18.7435400
  13.9393930  39.0706970  18.8782040  11.8878410  43.0119200  25.1622770
  11.9658830  43.1467970  24.2178490  12.5020090  42.3035090  25.3550890
  13.1326040  44.7119390  21.5728950  12.7254120  44.8533980  20.7182550
  14.0239050  44.4279550  21.3700160  24.9259320  49.1466640  17.9080000
  24.7660460  48.8569580  18.8061830  24.7606030  48.3706770  17.3725230
  17.4047700  48.9265170  19.6851620  17.2290180  48.0100710  19.4719420
  16.5503440  49.2852460  19.9249420  24.6285450  46.6554200  16.4678000
  23.9350610  46.6531490  15.8080280  25.3708310  46.2313520  16.0372170
  24.1935380  48.2816910  20.5426490  24.6492330  47.5006290  20.8565110
  24.5327900  48.9923730  21.0867670  11.9437930  44.0533370  27.7017230
  12.1068970  43.5838730  26.8836600  12.4090380  43.5456930  28.3666070
  16.7156700  33.1839130  22.7377800  16.2724850  33.9648670  22.4062320
  17.2741690  33.5069020  23.4448740  18.7532600  33.7286460  24.5967400
  19.0504930  34.6349290  24.5159420  19.3018160  33.2405240  23.9826970
  16.5070920  38.3072700  20.4659050  16.2811840  38.0909870  21.3705670
  15.7263450  38.7401160  20.1205020  11.3797720  33.5400410  23.3183180
  11.0910770  34.1103270  24.0308160  12.1243480  33.0604860  23.6814410
  11.5667950  37.4820530  14.5285900  11.4842620  38.4251290  14.6700890
  11.2151010  37.3395440  13.6498250  15.2168460  36.0986050  22.5550460
  14.8768510  36.5761280  23.3117510  14.4545780  35.6451170  22.1951560
  19.4286230  37.2171640  16.5863010  19.5499050  37.1758120  17.5348830
  19.0434740  38.0795790  16.4309740  18.4407730  39.5272780  15.9846310
  17.8724630  39.0791030  15.3582220  19.1496730  39.8865560  15.4511460
  26.8185350  32.4071220  30.4413080  27.1431120  31.6760880  30.9671060
  26.8541860  32.0884860  29.5394070  13.5176910  43.4284800  29.8613040
  13.1331700  42.7878470  30.4596000  13.8289100  44.1320920  30.4307770
  12.5314540  35.0205030  21.4715130  12.2461460  34.6560700  22.3093750
  12.4693400  34.2885490  20.8578270  15.9855210  43.5230970  18.2572720
  15.2117470  42.9828590  18.0971440  16.7149840  43.0037580  17.9190480
  16.0292610  43.1911350  21.8951530  16.5471280  42.3879610  21.8408420
  15.5776630  43.1290490  22.7368360  20.9162110  44.4577630  17.1678830
  21.2577810  45.2019860  16.6722150  20.0874820  44.7708750  17.5303660
  13.5137150  40.1572720  28.8077230  13.1552090  40.8226570  29.3950570
  13.2191710  39.3256270  29.1789850  28.2203040  46.4508040  18.6852650
  27.5779200  45.7963660  18.9596370  27.8333700  46.8563130  17.9093320
  19.8852800  44.5391160  19.9394750  20.5723930  45.0860370  20.3202340
  19.0985220  45.0831890  19.9744360  12.0245200  40.1563980  15.4311830
  12.8940050  40.4388780  15.7147750  11.5335520  40.9699850  15.3160640
  19.1880010  41.5437190  19.5520110  19.6442790  42.3542440  19.7780300
  18.8368220  41.2260330  20.3838600  15.0891790  31.8874840  20.0242630
  14.9606420  31.8792740  20.9727550  14.2653810  32.2257930  19.6733640
  26.6100420  45.3424500  15.2229000  26.3838000  44.6254940  15.8153640
  26.2196620  45.0936940  14.3850750  12.3916450  49.3691360  15.9973460
  12.7514090  49.9680700  15.3430730  12.2508790  49.9151250  16.7708490
  12.3758310  47.6346220  30.4715860  12.4849430  46.6940960  30.3311250
  11.7238870  47.9000970  29.8229590  18.4085070  46.7522560  16.8147130
  18.3995170  47.4852250  16.1991640  17.4883430  46.5054140  16.9074090
  14.0091710  41.9737450  17.5593890  13.4019660  42.7136350  17.5689190
  14.4841060  42.0636810  16.7332090  21.3944670  46.8150800  15.4772320
  21.4956650  46.6114790  14.5474300  20.4946410  46.5609080  15.6820100
  18.9170560  37.3731160  19.4596220  18.2086710  37.8417500  19.9009830
  19.2015040  36.7153170  20.0941410  20.0362780  49.3337120  20.1719990
  20.2904280  49.2958510  19.2499360  19.0875260  49.2070450  20.1648240
  17.1205580  35.6816240  16.8346930  17.9696110  36.1186390  16.7687120
  16.7536850  35.9936500  17.6618990  16.0197000  41.9348600  15.3082460
  16.7860270  41.8229960  15.8707890  16.0971690  41.2386570  14.6559230
  14.7143760  39.3673670  15.9915350  14.7947350  38.4201180  16.1032750
  15.6063510  39.6980550  16.0976010  15.5158470  49.5169060  23.0949890
  16.2520950  48.9684520  23.3658460  15.8999390  50.3825070  22.9555880
  12.4003950  45.5842630  18.9691400  11.4743730  45.8263770  18.9596810
  12.8660380  46.4116890  18.8476150  14.5216750  48.7015130  32.2835470
  15.3229480  49.0227180  32.6970870  14.0068570  48.3410710  33.0055380
  18.6260780  48.6899370  14.9175460  19.4189390  48.9788200  14.4657250
  18.1065130  48.2591540  14.2387940  27.6790950  47.9169500  16.3412200
  27.3932460  47.5034640  15.5266380  27.4810500  48.8457210  16.2212720
  12.2414560  41.1888590  31.2271520  12.7453580  40.6095870  31.7987750
  11.5021980  41.4728820  31.7647890  19.1438180  43.9102780  14.7817810
  19.0388820  43.2955130  15.5079190  18.9762400  43.3868670  13.9980820
  22.3840910  42.9722810  15.3859800  21.8351010  43.4192110  16.0302540
  23.0060170  42.4672060  15.9097470  14.2737640  39.3318180  32.1221590
  14.3142980  39.0332050  33.0306820  15.1283140  39.7325790  31.9629110
  18.0516030  41.9313730  17.2825100  18.4732450  41.7653600  18.1256490
  18.1766870  41.1213960  16.7880240  20.5643670  40.9551340  14.5302200
  21.0849330  40.2400360  14.1643350  21.2112070  41.5937210  14.8302710
  16.9474930  38.0046960  14.2283260  16.7463990  37.1414320  14.5896600
  16.7766980  37.9180320  13.2904860  17.7244160  48.6353230  28.9390930
  17.1865250  49.3599290  28.6199630  17.9778120  48.1583570  28.1488270
  15.7457730  35.1047580  14.2161140  16.0483630  35.1115010  13.3080290
  16.4852320  34.7545440  14.7128800  20.5806370  49.8704440  29.1977580
  20.5065070  50.7739580  29.5049950  19.6785210  49.5516340  29.1699650
  18.9642660  34.0482200  15.2017340  18.6164660  33.3706190  14.6219790
  19.1655430  33.5871710  16.0160730  21.1291700  49.0362950  16.8203940
  22.0242490  49.3747920  16.8422700  21.1609330  48.3142360  16.1928220
  14.7687860  44.4090000  15.0490940  15.2062730  44.9519670  15.7048520
  15.2535590  43.5836950  15.0587280  11.9833660  47.1979030  22.5011200
  12.3136670  46.3300090  22.2689840  12.4124660  47.4037550  23.3316160
  16.5795580  45.5288040  20.1613170  16.2791120  45.4053010  21.0617080
  16.4733070  44.6696630  19.7528900  12.4723870  48.0649620  25.2392830
  12.0354860  48.2450420  26.0716980  13.0401550  48.8224240  25.0974550
  29.3487500  45.3084440  14.8639850  28.5180460  45.3761090  15.3347080
  29.5259330  46.1988560  14.5606710  12.3048300  40.5769850  21.5981710
  11.6497140  40.3081490  20.9541410  13.1426250  40.4674330  21.1483690
  28.8563130  42.3466290  14.5246570  29.1311970  43.2545170  14.3965790
  28.6673870  42.2828820  15.4608560  25.2538740  35.3711140  15.8200200
  25.6723620  35.1842120  14.9796860  24.9474800  34.5190190  16.1303130
  13.3424230  40.9622420  26.1385050  13.7097270  40.8749820  27.0181070
  12.7735050  40.1988970  26.0391910  12.8940230  37.8731510  30.0443470
  11.9996280  37.8398270  30.3837180  13.4337780  38.0718300  30.8094720
  11.5186380  37.7868780  17.5407040  10.6150460  38.0498980  17.3658700
  12.0027000  38.0579950  16.7607000  14.0613590  36.8434320  15.4501420
  14.7705290  36.4217540  14.9648700  13.3453530  36.9109550  14.8184770
  13.7087750  32.8973650  14.4904070  14.4315880  33.4382590  14.8085290
  13.9812270  32.6237070  13.6145610  13.3979940  32.1479840  24.3926690
  14.0456130  31.5977220  23.9521850  13.8181780  32.4022990  25.2142500
  29.8356830  34.2334990  14.5319470  30.7606140  34.1016170  14.3237760
  29.8132620  34.3127810  15.4855920  29.9095320  35.0045650  17.1576180
  29.1146820  34.9390770  17.6869090  30.1138600  35.9396290  17.1461530
  26.8513740  49.0437200  21.1514570  27.4472810  48.7221770  20.4748990
  27.1091890  48.5709020  21.9427840  13.1511940  32.3035510  27.1352010
  12.8026760  32.7599330  27.9010190  12.8199640  31.4092640  27.2174440
  14.7576310  45.4755110  31.3005200  14.7145940  45.1048020  32.1819660
  14.8887320  46.4132680  31.4407020  18.4582340  47.0314700  26.9014920
  18.2173700  47.2989260  26.0145440  19.3984980  47.2020430  26.9565780
  14.5964340  48.4217360  28.4202980  14.0024660  48.2902060  29.1593020
  14.5888180  47.5855500  27.9545080  14.2276570  45.7875740  27.3711020
  13.5010630  45.1681030  27.3036970  14.2885720  46.1816350  26.5009100
  17.8321670  48.0020740  24.1560430  18.3486690  47.3908100  23.6308690
  18.4819050  48.5049520  24.6471440  20.5717170  48.8929230  24.9829410
  20.8594980  48.6383530  24.1062420  21.0840390  48.3406590  25.5734980
  12.5106570  49.1050130  20.5807780  12.3428610  48.4720810  21.2789670
  11.6441080  49.3109530  20.2301970  13.1334590  32.9366910  18.0839640
  13.8913950  33.0495790  17.5103670  12.6711760  33.7736110  18.0383070
  27.3207980  32.1170190  17.5865300  27.5158610  33.0153640  17.8532730
  26.5337850  31.8857270  18.0798250  14.1169270  47.7983360  18.0257920
  13.5916890  48.1791390  17.3219880  14.0413850  48.4234130  18.7467630
  15.5059740  33.4630960  16.6241610  16.0352500  32.6760760  16.4949560
  16.1388060  34.1422150  16.8577140  17.6997580  33.2006100  19.6787000
  17.0700320  32.4993410  19.8457130  17.1602720  33.9610230  19.4620160
  20.6389530  49.8145330  32.3497610  21.5656840  49.5789600  32.3933570
  20.6239960  50.6417330  31.8683640  28.8734590  49.3570900  19.3471860
  29.0486780  48.6708640  18.7032780  28.1756160  49.8817950  18.9548530
  16.7162240  49.7465740  16.9007170  17.4481060  49.4625020  16.3531060
  16.9755910  49.5079020  17.7906550  15.8777030  45.8630470  16.9053500
  15.2485910  46.3315570  17.4539330  15.9924860  45.0179690  17.3399690
  23.3326750  39.9136130   3.0554700  23.2520800  38.9990740   2.7846410
  22.9191170  40.4103200   2.3494410  21.4644790  41.6915150   4.9363970
  20.6886890  41.2115590   5.2262540  22.1157720  41.0120800   4.7620130
  15.4810620  42.0034960   5.8139730  14.6495500  41.7483670   6.2136240
  16.0891600  42.0745730   6.5497650  25.4852220  46.0975340   3.7163100
  25.0233750  45.3262580   4.0450270  26.2977770  46.1241410   4.2215550
  15.4611880  46.0375050   6.0097750  15.7639920  45.1472790   5.8307970
  16.2055470  46.5945270   5.7820000  11.8535580  39.5642500   5.4821820
  12.4251690  38.7964700   5.4825460  11.8537120  39.8631260   4.5728430
  21.7115530  48.3833350   3.3367090  21.0926970  48.8390850   2.7661530
  22.5667310  48.5384810   2.9356790  20.9053780  44.3672340   4.9434130
  20.8362060  43.4262280   4.7823260  21.6673640  44.4573750   5.5156700
  13.0960450  34.9726860   7.2690750  12.9163290  34.0752610   7.5493510
  12.6940530  35.5198730   7.9437700  21.9358950  37.1742720   5.1703060
  22.3123770  36.3014600   5.0576730  21.8378460  37.5101420   4.2793500
  25.7183070  34.6693160   2.1031400  26.5392690  34.1789730   2.1456880
  25.7517150  35.2590820   2.8563240  13.7147120  37.4687360   5.8773090
  14.3957230  37.7325730   6.4960490  13.3995170  36.6288230   6.2111100
  17.9071690  38.5154720   4.9645680  18.4149910  39.0135690   5.6050700
  18.4384930  37.7389920   4.7885040  30.0082620  36.6859910   8.6675030
  29.3034790  37.0741620   8.1490140  30.2740540  37.3810200   9.2695960
  16.1907790  33.1553280   9.2309100  16.1926230  33.6725670   8.4255000
  15.3612100  32.6783460   9.2079030  17.4410640  42.7948460   7.4082600
  17.1080020  43.4217380   8.0503670  17.6177320  43.3210340   6.6284270
  25.9544550  36.6093540   4.8758940  25.2500120  36.8978430   5.4562050
  26.3156710  37.4193650   4.5158500  15.8723120  34.8663240   7.2379550
  16.2139930  35.7105290   6.9433420  14.9338930  35.0146980   7.3544890
  16.6529740  44.7629260   9.2231780  17.2703740  45.4380340   8.9416230
  15.7922860  45.1717240   9.1319280  27.5707330  46.2268670   7.1386420
  26.8870850  46.8967780   7.1303090  28.1101620  46.4249320   6.3731280
  29.0231470  36.0548330   5.2668150  28.0756380  36.0887310   5.3983580
  29.3481460  36.8687280   5.6517510  19.5551010  32.3545510   3.5624140
  19.8625990  31.7992400   2.8459640  18.6251710  32.4889970   3.3797130
  25.1066070  48.0712800   5.8531600  25.1193230  47.6675090   4.9853860
  24.5541290  48.8460090   5.7493030  24.5051510  42.9742640   7.1814210
  24.9220300  42.7602750   6.3467670  25.2291330  43.2315430   7.7522830
  28.4513610  41.3729860   7.2730450  27.6232240  41.4422950   6.7980580
  29.0464090  41.9584170   6.8046280  25.4155620  38.1599180   8.2185320
  25.0026800  38.9852890   8.4725310  24.6831570  37.5744220   8.0261680
  17.5488410  40.9459080   3.0803990  17.1445410  40.2336330   2.5849890
  17.6351530  40.6012320   3.9692030  18.0170110  44.6326640   5.2443200
  17.7198400  44.0272110   4.5650980  18.9669930  44.6703950   5.1332560
  16.2617030  37.7202290   6.8603030  16.8131620  37.8297630   6.0856280
  16.7760540  38.0939890   7.5758260  26.1055720  48.2058510   8.9066300
  25.6286280  49.0130700   8.7138910  25.4217510  47.5536840   9.0592510
  17.1088540  44.3708330  11.8951000  16.2117070  44.5948300  12.1424400
  17.1341410  44.4943270  10.9462400  15.9359760  41.2421650  10.4708370
  15.7967530  42.1144450  10.8395770  15.0541120  40.8994460  10.3256310
  17.7340110  47.1843350  12.6793520  17.7055540  47.5886300  11.8121950
  17.5705080  46.2553710  12.5165120  29.6854930  47.9670450  13.9757690
  30.1614650  48.4453340  14.6546770  30.3062090  47.8987940  13.2503190
  11.8878410  43.0119200   6.3879280  11.9658830  43.1467970   5.4435000
  12.5020090  42.3035090   6.5807400  13.1326040  44.7119390   2.7985460
  12.7254120  44.8533980   1.9439060  14.0239050  44.4279550   2.5956670
  29.0888180  45.1583300  11.1357700  29.2151240  44.9195180  10.2174880
  29.1309560  44.3267840  11.6079780  22.9504920  48.8611300   9.7052510
  23.4649590  48.7719310  10.5074940  22.1074000  49.2071000   9.9980420
  24.1935380  48.2816910   1.7683000  24.6492330  47.5006290   2.0821620
  24.5327900  48.9923730   2.3124180  28.9412190  37.2115760  12.1007440
  28.3256460  37.7195430  11.5722900  28.6208610  36.3114090  12.0433380
  11.9437930  44.0533370   8.9273740  12.1068970  43.5838730   8.1093110
  12.4090380  43.5456930   9.5922580  16.7156700  33.1839130   3.9634310
  16.2724850  33.9648670   3.6318830  17.2741690  33.5069020   4.6705250
  21.0026510  36.0507650   9.5669630  20.5405880  36.2590670  10.3789570
  20.6004620  35.2367000   9.2640300  26.0031020  37.2716600  10.6966290
  25.1524610  36.9722350  11.0175360  25.8432810  37.5158610   9.7850110
  23.0980730  38.7718350  12.7965080  23.4234140  37.9382100  12.4567310
  23.8861060  39.2946870  12.9443410  18.7532600  33.7286460   5.8223910
  19.0504930  34.6349290   5.7415930  19.3018160  33.2405240   5.2083480
  18.9470130  39.2058280  12.3575830  18.8513730  38.2653010  12.2076230
  19.7902110  39.4273350  11.9623900  14.0780670  35.6171950  10.5109610
  13.6844060  36.4647160  10.7182390  13.3899070  34.9798320  10.7018250
  20.6525720  35.7006920  13.5806350  19.9624040  35.5079120  14.2152440
  21.3958020  35.9841560  14.1130650  11.3797720  33.5400410   4.5439690
  11.0910770  34.1103270   5.2564670  12.1243480  33.0604860   4.9070920
  22.9288690  39.5405360   6.4160270  22.1969810  40.0492170   6.7650370
  22.5313030  38.7235340   6.1149050  19.3666080  36.2159560   4.8212760
  19.3702140  35.7749510   3.9717300  20.2617200  36.5376890   4.9284580
  15.2168460  36.0986050   3.7806970  14.8768510  36.5761280   4.5374020
  14.4545780  35.6451170   3.4208070  23.3914600  34.9939040   5.8283210
  23.4087340  35.4447690   6.6725060  23.1430180  34.0944680   6.0416650
  26.8185350  32.4071220  11.6669590  27.1431120  31.6760880  12.1927570
  26.8541860  32.0884860  10.7650580  13.5176910  43.4284800  11.0869550
  13.1331700  42.7878470  11.6852510  13.8289100  44.1320920  11.6564280
  19.6674050  40.2761340   6.5678170  20.0344180  39.8019910   7.3139510
  19.4779110  41.1502910   6.9086510  12.5314540  35.0205030   2.6971640
  12.2461460  34.6560700   3.5350260  12.4693400  34.2885490   2.0834780
  17.4573420  39.3169980   8.8862380  17.1530490  40.1961960   9.1112740
  18.4119880  39.3769770   8.9219820  26.7443190  42.5196330   5.2755620
  27.4642310  43.0151620   4.8851730  26.5425010  41.8414220   4.6309490
  22.1261990  42.5905390  11.1624620  22.0599300  41.6701060  10.9082210
  21.4967130  42.6880830  11.8769260  16.0292610  43.1911350   3.1208040
  16.5471280  42.3879610   3.0664930  15.5776630  43.1290490   3.9624870
  13.5137150  40.1572720  10.0333740  13.1552090  40.8226570  10.6207080
  13.2191710  39.3256270  10.4046360  16.7150270  40.6156960  12.9173290
  16.4150410  40.7614140  12.0201110  17.4861510  40.0562250  12.8246680
  22.0578720  45.4125960  10.9128420  22.0723260  44.4806920  10.6947330
  21.3503820  45.4985720  11.5518190  28.2689930  42.0533300  10.2597000
  27.5438120  42.6462080  10.0626390  28.7965390  42.0456840   9.4610370
  23.7989520  43.7793470   3.7580850  24.1513340  43.1821600   3.0982220
  22.9151850  43.4537700   3.9289100  21.4912620  47.0543530   8.0068920
  22.1354840  47.2602910   8.6842340  21.8542060  46.2931930   7.5539770
  22.7644700  45.0575880   6.7246370  23.4066930  44.3569040   6.8378540
  23.2894050  45.8374320   6.5443260  24.5382320  45.8570780   9.9282430
  24.8738560  46.4437470  10.6060350  23.6182660  45.7263490  10.1580220
  12.0885720  33.6465960  10.7105840  11.3744240  33.8462880  11.3158450
  12.5080760  32.8705530  11.0820640  12.3758310  47.6346220  11.6972370
  12.4849430  46.6940960  11.5567760  11.7238870  47.9000970  11.0486100
  20.3670900  45.9062110  13.0970490  20.0467770  45.1871350  13.6416180
  19.6929260  46.5817180  13.1706550  23.5824500  36.1388270   8.4607290
  23.9505320  35.3183480   8.7886860  22.7222700  36.1990160   8.8762940
  20.5426490  38.7927860   8.6845260  21.0411740  39.2673680   9.3497110
  20.6849440  37.8691380   8.8915290  27.7493350  35.0095820   9.5273650
  27.2466950  35.7501220   9.8667460  28.5650010  35.3979820   9.2110440
  26.0415360  40.2529000   2.9735010  25.1005500  40.2679230   3.1482700
  26.3559430  39.4664960   3.4195310  28.0440940  47.4237850   4.6489270
  28.1688360  48.2469020   5.1213080  28.9106500  47.2128580   4.3013420
  15.5158470  49.5169060   4.3206400  16.2520950  48.9684520   4.5914970
  15.8999390  50.3825070   4.1812390  14.5216750  48.7015130  13.5091980
  15.3229480  49.0227180  13.9227380  14.0068570  48.3410710  14.2311890
  23.3581380  44.8095000  13.4567390  22.7519540  44.8326600  12.7163140
  23.0535490  44.0778040  13.9934640  24.7881750  48.5375290  12.0676800
  25.7403500  48.4533310  12.0177040  24.6409970  49.2017000  12.7410590
  12.2414560  41.1888590  12.4528030  12.7453580  40.6095870  13.0244260
  11.5021980  41.4728820  12.9904400  19.2952500  42.5959580  11.9863550
  18.5298170  43.1644580  11.9018220  19.4768460  42.3035790  11.0931780
  26.4375850  44.3264910  12.5438570  27.1785320  44.6640670  12.0406030
  25.6748530  44.4956970  11.9908340  14.2737640  39.3318180  13.3478100
  14.3142980  39.0332050  14.2563330  15.1283140  39.7325790  13.1885620
  16.2143450  37.9110280  11.3152590  15.6839910  37.4201230  10.6875930
  16.8831520  38.3394480  10.7810520  25.1121510  42.3779740  11.0793780
  25.5262530  42.5324820  11.9284200  24.1772510  42.5034960  11.2419560
  25.5843680  39.7175900  13.0832930  26.1664450  38.9628220  12.9953410
  25.7605450  40.2483340  12.3064410  16.7015750  34.8772650  11.3949880
  16.6072620  34.2593400  10.6700750  16.1213140  35.6038940  11.1679790
  19.4677190  33.4345890   8.4277270  19.0194490  33.4570150   7.5822820
  18.8342390  33.0364910   9.0247570  19.8736740  42.3300220   9.0489710
  20.2924850  43.1732950   8.8765950  18.9545370  42.4672260   8.8196490
  22.2100640  40.0616400  10.4327550  22.3296850  39.4657540  11.1722390
  23.0694640  40.0986090  10.0128850  24.5488540  40.6153590   9.0090060
  24.0223760  41.1396210   8.4055200  24.8919880  41.2480980   9.6399790
  17.7244160  48.6353230  10.1647440  17.1865250  49.3599290   9.8456140
  17.9778120  48.1583570   9.3744780  18.9769410  36.6037750  11.6903370
  19.5669100  36.2953600  12.3781190  18.1589650  36.1317500  11.8463270
  23.7962840  36.2203560  11.9236390  23.1078360  35.5585100  11.8586380
  24.5168860  35.7741830  12.3684850  20.5806370  49.8704440  10.4234090
  20.5065070  50.7739580  10.7306460  19.6785210  49.5516340  10.3956160
  11.9833660  47.1979030   3.7267710  12.3136670  46.3300090   3.4946350
  12.4124660  47.4037550   4.5572670  12.4723870  48.0649620   6.4649340
  12.0354860  48.2450420   7.2973490  13.0401550  48.8224240   6.3231060
  28.1086050  47.5666620  10.7526650  27.5088040  47.6259180  10.0090570
  28.2379950  46.6271600  10.8823500  12.3048300  40.5769850   2.8238220
  11.6497140  40.3081490   2.1797920  13.1426250  40.4674330   2.3740200
  29.8103930  42.9082020   3.4372490  30.1812760  42.1249340   3.0308460
  30.4505860  43.5971120   3.2589790  26.7937690  44.2918600   8.8502810
  25.9797530  44.7215760   9.1128600  27.2011890  44.9037010   8.2371860
  13.3424230  40.9622420   7.3641560  13.7097270  40.8749820   8.2437580
  12.7735050  40.1988970   7.2648420  28.1428090  39.4306800  10.3772030
  27.9114180  39.2019550   9.4769980  28.4032640  40.3506350  10.3316920
  12.8940230  37.8731510  11.2699980  11.9996280  37.8398270  11.6093690
  13.4337780  38.0718300  12.0351230  26.5816160  34.6563230  13.1551730
  27.4586340  34.6646630  13.5385730  26.5937000  33.9194070  12.5444080
  28.0279430  38.5092770   4.0439750  28.5516910  38.0155420   3.4129920
  28.6138850  38.6443130   4.7887320  28.2069150  38.5932640   7.5659300
  27.2571860  38.5596180   7.6804290  28.3882160  39.5032750   7.3309070
  13.3979940  32.1479840   5.6183200  14.0456130  31.5977220   5.1778360
  13.8181780  32.4022990   6.4399010  28.9466560  36.4027070   2.5169840
  28.8365840  36.2483110   3.4552110  29.7074150  35.8748010   2.2745250
  27.2932280  32.3421200   8.9752840  27.9304500  32.9555340   9.3412030
  27.4407170  32.3781860   8.0302070  26.8513740  49.0437200   2.3771080
  27.4472810  48.7221770   1.7005500  27.1091890  48.5709020   3.1684350
  13.1511940  32.3035510   8.3608520  12.8026760  32.7599330   9.1266700
  12.8199640  31.4092640   8.4430950  14.7576310  45.4755110  12.5261710
  14.7145940  45.1048020  13.4076170  14.8887320  46.4132680  12.6663530
  18.4582340  47.0314700   8.1271430  18.2173700  47.2989260   7.2401950
  19.3984980  47.2020430   8.1822290  20.6636760  33.4947390  11.8827940
  20.6025650  34.0869220  12.6323350  21.6037140  33.3873350  11.7378200
  23.3011320  33.1517450  11.5220230  23.9151730  33.4696740  10.8601310
  23.8460880  32.6666040  12.1416090  29.7186500  49.0509080   8.9282070
  29.2244780  49.4477950   8.2109200  29.1099790  48.4258290   9.3219350
  13.8232580  31.8311710  11.6359290  14.3715570  31.6499760  10.8725400
  13.8887890  31.0405820  12.1715600  14.5964340  48.4217360   9.6459490
  14.0024660  48.2902060  10.3849530  14.5888180  47.5855500   9.1801590
  24.0419360  31.7149590   7.8489520  23.1679200  32.0484700   7.6462450
  23.9330110  31.2422770   8.6741390  24.9491340  33.9220460   9.2331240
  24.6204700  33.1072220   8.8532970  25.8973640  33.8790270   9.1096930
  27.4025950  49.6932500   6.2068810  26.9428920  50.4448310   5.8326830
  26.7738410  48.9738970   6.1483610  14.2276570  45.7875740   8.5967530
  13.5010630  45.1681030   8.5293480  14.2885720  46.1816350   7.7265610
  17.8321670  48.0020740   5.3816940  18.3486690  47.3908100   4.8565200
  18.4819050  48.5049520   5.8727950  20.5717170  48.8929230   6.2085920
  20.8594980  48.6383530   5.3318930  21.0840390  48.3406590   6.7991490
  21.7894180  32.6319430   6.7882430  21.0065970  33.1064930   7.0679190
  21.4957110  31.7274260   6.6795610  26.3415250  33.3342530   4.8331520
  26.7823340  33.2787630   3.9853120  26.0722840  34.2500540   4.9041700
  28.2053820  32.9657770   2.8440340  28.1442220  32.0218990   2.6971360
  28.9845850  33.0737860   3.3893800  19.6748400  35.0506180   2.2998460
  18.8622910  34.6763070   1.9594340  20.1790040  34.2951260   2.6019650
  24.1773380  31.7148630   3.5381530  24.7802750  32.2868840   4.0130050
  23.4366370  32.2788070   3.3155430  20.6389530  49.8145330  13.5754120
  21.5656840  49.5789600  13.6190080  20.6239960  50.6417330  13.0940150
  17.8253140  32.4790080  13.3396000  17.5437410  32.9823680  12.5756820
  18.2072840  31.6811830  12.9738130  24.4268600  31.8943660  13.9176470
  24.3134050  32.2138270  14.8127990  25.2438340  32.2956170  13.6213750
  27.2067090  49.0415190  13.3995160  27.9992410  48.5464420  13.1921120
  27.5000240  49.7205330  14.0070770  23.3326750  21.1392640  96.9272150
  23.2520800  20.2247250  96.6563860  22.9191170  21.6359710  96.2211860
  21.4644790  22.9171660  98.8081420  20.6886890  22.4372100  99.0979990
  22.1157720  22.2377310  98.6337580  15.4810620  23.2291470  99.6857180
  14.6495500  22.9740180 100.0853690  16.0891600  23.3002240 100.4215100
  25.4852220  27.3231850  97.5880550  25.0233750  26.5519090  97.9167720
  26.2977770  27.3497920  98.0933000  15.4611880  27.2631560  99.8815200
  15.7639920  26.3729300  99.7025420  16.2055470  27.8201780  99.6537450
  13.8902570  18.1893360  93.4699570  13.0019270  18.5309330  93.3679450
  14.1743760  17.9893680  92.5780400  11.8535580  20.7899010  99.3539270
  12.4251690  20.0221210  99.3542910  11.8537120  21.0887770  98.4445880
  21.7115530  29.6089860  97.2084540  21.0926970  30.0647360  96.6378980
  22.5667310  29.7641320  96.8074240  20.9053780  25.5928850  98.8151580
  20.8362060  24.6518790  98.6540710  21.6673640  25.6830260  99.3874150
  21.9358950  18.3999230  99.0420510  22.3123770  17.5271110  98.9294180
  21.8378460  18.7357930  98.1510950  16.0663960  16.7724860  94.5037950
  16.1730710  17.6728590  94.8106710  15.1556320  16.7242830  94.2132600
  25.7183070  15.8949670  95.9748850  26.5392690  15.4046240  96.0174330
  25.7517150  16.4847330  96.7280690  13.7147120  18.6943870  99.7490540
  14.3957230  18.9582240 100.3677940  13.3995170  17.8544740 100.0828550
  17.9071690  19.7411230  98.8363130  18.4149910  20.2392200  99.4768150
  18.4384930  18.9646430  98.6602490  22.5778880  24.4929100  94.6016450
  21.9596150  24.9578550  94.0379170  23.0902130  25.1856580  95.0185960
  25.9544550  17.8350050  98.7476390  25.2500120  18.1234940  99.3279500
  26.3156710  18.6450160  98.3875950  15.8723120  16.0919750 101.1097000
  16.2139930  16.9361800 100.8150870  14.9338930  16.2403490 101.2262340
  11.9462080  25.1785630  91.9756080  11.5690060  25.6672730  91.2440980
  12.2035150  25.8510910  92.6062610  27.5707330  27.4525180 101.0103870
  26.8870850  28.1224290 101.0020540  28.1101620  27.6505830 100.2448730
  29.0231470  17.2804840  99.1385600  28.0756380  17.3143820  99.2701030
  29.3481460  18.0943790  99.5234960  19.5551010  13.5802020  97.4341590
  19.8625990  13.0248910  96.7177090  18.6251710  13.7146480  97.2514580
  25.1066070  29.2969310  99.7249050  25.1193230  28.8931600  98.8571310
  24.5541290  30.0716600  99.6210480  26.4011490  26.0185530  94.8139220
  26.2907820  25.0759860  94.9388640  26.3979740  26.3801170  95.7001980
  24.5051510  24.1999150 101.0531660  24.9220300  23.9859260 100.2185120
  25.2291330  24.4571940 101.6240280  21.9431770  21.6450850  94.1701710
  21.0161050  21.5788230  94.3990180  22.0956590  22.5830980  94.0556950
  21.9300850  17.9167850  91.1668870  20.9904520  18.0781810  91.2521330
  22.2484110  18.6353530  90.6204860  28.4513610  22.5986370 101.1447900
  27.6232240  22.6679460 100.6698030  29.0464090  23.1840680 100.6763730
  25.9729060  23.2071150  94.6736960  25.3541480  22.8690700  94.0263260
  25.9553510  22.5630910  95.3816150  17.5488410  22.1715590  96.9521440
  17.1445410  21.4592840  96.4567340  17.6351530  21.8268830  97.8409480
  18.0170110  25.8583150  99.1160650  17.7198400  25.2528620  98.4368430
  18.9669930  25.8960460  99.0050010  16.2617030  18.9458800 100.7320480
  16.8131620  19.0554140  99.9573730  16.7760540  19.3196400 101.4475710
  24.1493760  22.4457960  91.6809710  24.5887040  21.6080390  91.5347530
  24.8622180  23.0787360  91.7673850  22.2589140  27.3854030  95.6490950
  22.6985050  28.1278360  95.2346340  22.1976030  27.6280600  96.5729910
  27.7310900  13.7000770  89.9950750  27.4183560  13.7927600  90.8949820
  28.4923370  14.2781800  89.9448180  14.2493040  21.0660570  94.4528090
  14.1290640  21.7922660  93.8409360  13.9393930  20.2963480  93.9756000
  11.8878410  24.2375710 100.2596730  11.9658830  24.3724480  99.3152450
  12.5020090  23.5291600 100.4524850  13.1326040  25.9375900  96.6702910
  12.7254120  26.0790490  95.8156510  14.0239050  25.6536060  96.4674120
  24.9259320  30.3723150  93.0053960  24.7660460  30.0826090  93.9035790
  24.7606030  29.5963280  92.4699190  17.4047700  30.1521680  94.7825580
  17.2290180  29.2357220  94.5693380  16.5503440  30.5108970  95.0223380
  24.6285450  27.8810710  91.5651960  23.9350610  27.8788000  90.9054240
  25.3708310  27.4570030  91.1346130  24.1935380  29.5073420  95.6400450
  24.6492330  28.7262800  95.9539070  24.5327900  30.2180240  96.1841630
  16.7156700  14.4095640  97.8351760  16.2724850  15.1905180  97.5036280
  17.2741690  14.7325530  98.5422700  19.8315520  14.0306340  92.7157590
  19.2069700  14.0266210  93.4410900  19.7445640  13.1637300  92.3193560
  18.7532600  14.9542970  99.6941360  19.0504930  15.8605800  99.6133380
  19.3018160  14.4661750  99.0800930  16.5070920  19.5329210  95.5633010
  16.2811840  19.3166380  96.4679630  15.7263450  19.9657670  95.2178980
  23.7368680  19.5392580  94.1623660  23.1377570  20.2628380  93.9787280
  24.2848290  19.4769360  93.3800110  22.3433550  18.1756120  96.1926940
  22.7363120  18.4928320  95.3795630  22.7050400  17.2968000  96.3071460
  11.3797720  14.7656920  98.4157140  11.0910770  15.3359780  99.1282120
  12.1243480  14.2861370  98.7788370  11.5667950  18.7077040  89.6259860
  11.4842620  19.6507800  89.7674850  11.2151010  18.5651950  88.7472210
  22.9288690  20.7661870 100.2877720  22.1969810  21.2748680 100.6367820
  22.5313030  19.9491850  99.9866500  19.3666080  17.4416070  98.6930210
  19.3702140  17.0006020  97.8434750  20.2617200  17.7633400  98.8002030
  15.2168460  17.3242560  97.6524420  14.8768510  17.8017790  98.4091470
  14.4545780  16.8707680  97.2925520  19.4286230  18.4428150  91.6836970
  19.5499050  18.4014630  92.6322790  19.0434740  19.3052300  91.5283700
  23.3914600  16.2195550  99.7000660  23.4087340  16.6704200 100.5442510
  23.1430180  15.3201190  99.9134100  18.4407730  20.7529290  91.0820270
  17.8724630  20.3047540  90.4556180  19.1496730  21.1122070  90.5485420
  19.6674050  21.5017850 100.4395620  20.0344180  21.0276420 101.1856960
  19.4779110  22.3759420 100.7803960  12.5314540  16.2461540  96.5689090
  12.2461460  15.8817210  97.4067710  12.4693400  15.5142000  95.9552230
  15.9855210  24.7487480  93.3546680  15.2117470  24.2085100  93.1945400
  16.7149840  24.2294090  93.0164440  26.7443190  23.7452840  99.1473070
  27.4642310  24.2408130  98.7569180  26.5425010  23.0670730  98.5026940
  22.2053130  15.1390800  93.2902460  21.3917740  14.6403970  93.2147770
  22.0115080  15.9789050  92.8738810  24.9201520  19.5110450  91.5864620
  25.8081140  19.8227680  91.4115960  24.8906610  18.6382700  91.1945200
  16.0292610  24.4167860  96.9925490  16.5471280  23.6136120  96.9382380
  15.5776630  24.3547000  97.8342320  20.9162110  25.6834140  92.2652790
  21.2577810  26.4276370  91.7696110  20.0874820  25.9965260  92.6277620
  27.1915790  20.8222290  91.0544480  27.1079510  21.2536510  90.2040920
  27.9109980  21.2820640  91.4871300  28.2203040  27.6764550  93.7826610
  27.5779200  27.0220170  94.0570330  27.8333700  28.0819640  93.0067280
  23.7989520  25.0049980  97.6298300  24.1513340  24.4078110  96.9699670
  22.9151850  24.6794210  97.8006550  19.8852800  25.7647670  95.0368710
  20.5723930  26.3116880  95.4176300  19.0985220  26.3088400  95.0718320
  12.0245200  21.3820490  90.5285790  12.8940050  21.6645290  90.8121710
  11.5335520  22.1956360  90.4134600  19.1880010  22.7693700  94.6494070
  19.6442790  23.5798950  94.8754260  18.8368220  22.4516840  95.4812560
  15.0891790  13.1131350  95.1216590  14.9606420  13.1049250  96.0701510
  14.2653810  13.4514440  94.7707600  22.7644700  26.2832390 100.5963820
  23.4066930  25.5825550 100.7095990  23.2894050  27.0630830 100.4160710
  26.6100420  26.5681010  90.3202960  26.3838000  25.8511450  90.9127600
  26.2196620  26.3193450  89.4824710  12.3916450  30.5947870  91.0947420
  12.7514090  31.1937210  90.4404690  12.2508790  31.1407760  91.8682450
  26.1916670  24.4852950  91.9817120  25.9038370  24.9465640  92.7695000
  26.9868840  24.0250720  92.2501340  18.4085070  27.9779070  91.9121090
  18.3995170  28.7108760  91.2965600  17.4883430  27.7310650  92.0048050
  14.0091710  23.1993960  92.6567850  13.4019660  23.9392860  92.6663150
  14.4841060  23.2893320  91.8306050  26.9486530  16.3201720  93.1412300
  26.3199690  16.4247390  92.4270530  26.4538450  16.5398500  93.9306180
  21.3944670  28.0407310  90.5746280  21.4956650  27.8371300  89.6448260
  20.4946410  27.7865590  90.7794060  18.9170560  18.5987670  94.5570180
  18.2086710  19.0674010  94.9983790  19.2015040  17.9409680  95.1915370
  22.9485990  15.3238330  95.9965970  22.8253770  15.3424460  95.0475480
  23.8970550  15.3717270  96.1164370  20.0362780  30.5593630  95.2693950
  20.2904280  30.5215020  94.3473320  19.0875260  30.4326960  95.2622200
  17.1205580  16.9072750  91.9320890  17.9696110  17.3442900  91.8661080
  16.7536850  17.2193010  92.7592950  26.0415360  21.4785510  96.8452460
  25.1005500  21.4935740  97.0200150  26.3559430  20.6921470  97.2912760
  16.0197000  23.1605110  90.4056420  16.7860270  23.0486470  90.9681850
  16.0971690  22.4643080  89.7533190  14.7143760  20.5930180  91.0889310
  14.7947350  19.6457690  91.2006710  15.6063510  20.9237060  91.1949970
  28.0440940  28.6494360  98.5206720  28.1688360  29.4725530  98.9930530
  28.9106500  28.4385090  98.1730870  15.5158470  30.7425570  98.1923850
  16.2520950  30.1941030  98.4632420  15.8999390  31.6081580  98.0529840
  12.4003950  26.8099140  94.0665360  11.4743730  27.0520280  94.0570770
  12.8660380  27.6373400  93.9450110  18.6260780  29.9155880  90.0149420
  19.4189390  30.2044710  89.5631210  18.1065130  29.4848050  89.3361900
  27.6790950  29.1426010  91.4386160  27.3932460  28.7291150  90.6240340
  27.4810500  30.0713720  91.3186680  19.1438180  25.1359290  89.8791770
  19.0388820  24.5211640  90.6053150  18.9762400  24.6125180  89.0954780
  22.3840910  24.1979320  90.4833760  21.8351010  24.6448620  91.1276500
  23.0060170  23.6928570  91.0071430  18.0516030  23.1570240  92.3799060
  18.4732450  22.9910110  93.2230450  18.1766870  22.3470470  91.8854200
  20.5643670  22.1807850  89.6276160  21.0849330  21.4656870  89.2617310
  21.2112070  22.8193720  89.9276670  16.9474930  19.2303470  89.3257220
  16.7463990  18.3670830  89.6870560  16.7766980  19.1436830  88.3878820
  24.4263240  14.0411700  91.8544100  24.7065530  13.1979600  92.2103520
  23.6528970  14.2734810  92.3682850  15.7457730  16.3304090  89.3135100
  16.0483630  16.3371520  88.4054250  16.4852320  15.9801950  89.8102760
  18.9642660  15.2738710  90.2991300  18.6164660  14.5962700  89.7193750
  19.1655430  14.8128220  91.1134690  21.1291700  30.2619460  91.9177900
  22.0242490  30.6004430  91.9396660  21.1609330  29.5398870  91.2902180
  14.7687860  25.6346510  90.1464900  15.2062730  26.1776180  90.8022480
  15.2535590  24.8093460  90.1561240  11.9833660  28.4235540  97.5985160
  12.3136670  27.5556600  97.3663800  12.4124660  28.6294060  98.4290120
  16.5795580  26.7544550  95.2587130  16.2791120  26.6309520  96.1591040
  16.4733070  25.8953140  94.8502860  12.4723870  29.2906130 100.3366790
  12.0354860  29.4706930 101.1690940  13.0401550  30.0480750 100.1948510
  29.3487500  26.5340950  89.9613810  28.5180460  26.6017600  90.4321040
  29.5259330  27.4245070  89.6580670  28.8043960  23.2788430  92.4648010
  29.5662870  23.8485080  92.5707700  28.8198330  22.7115630  93.2356320
  12.3048300  21.8026360  96.6955670  11.6497140  21.5338000  96.0515370
  13.1426250  21.6930840  96.2457650  29.8103930  24.1338530  97.3089940
  30.1812760  23.3505850  96.9025910  30.4505860  24.8227630  97.1307240
  28.8563130  23.5722800  89.6220530  29.1311970  24.4801680  89.4939750
  28.6673870  23.5085330  90.5582520  25.2538740  16.5967650  90.9174160
  25.6723620  16.4098630  90.0770820  24.9474800  15.7446700  91.2277090
  28.7528470  21.5091790  94.6149960  28.3772070  20.7419720  94.1831250
  28.0231590  21.8914490  95.1024890  11.5186380  19.0125290  92.6381000
  10.6150460  19.2755490  92.4632660  12.0027000  19.2836460  91.8580960
  28.0279430  19.7349280  97.9157200  28.5516910  19.2411930  97.2847370
  28.6138850  19.8699640  98.6604770  28.2069150  19.8189150 101.4376750
  27.2571860  19.7852690 101.5521740  28.3882160  20.7289260 101.2026520
  14.0613590  18.0690830  90.5475380  14.7705290  17.6474050  90.0622660
  13.3453530  18.1366060  89.9158730  13.7087750  14.1230160  89.5878030
  14.4315880  14.6639100  89.9059250  13.9812270  13.8493580  88.7119570
  27.5179400  18.9922630  93.8549610  28.0138520  18.7593500  94.6398490
  27.3195470  18.1534470  93.4387250  13.3979940  13.3736350  99.4900650
  14.0456130  12.8233730  99.0495810  13.8181780  13.6279500 100.3116460
  28.9466560  17.6283580  96.3887290  28.8365840  17.4739620  97.3269560
  29.7074150  17.1004520  96.1462700  29.8356830  15.4591500  89.6293430
  30.7606140  15.3272680  89.4211720  29.8132620  15.5384320  90.5829880
  29.9095320  16.2302160  92.2550140  29.1146820  16.1647280  92.7843050
  30.1138600  17.1652800  92.2435490  26.8513740  30.2693710  96.2488530
  27.4472810  29.9478280  95.5722950  27.1091890  29.7965530  97.0401800
  27.4025950  30.9189010 100.0786260  26.9428920  31.6704820  99.7044280
  26.7738410  30.1995480 100.0201060  17.8321670  29.2277250  99.2534390
  18.3486690  28.6164610  98.7282650  18.4819050  29.7306030  99.7445400
  20.5717170  30.1185740 100.0803370  20.8594980  29.8640040  99.2036380
  21.0840390  29.5663100 100.6708940  21.7894180  13.8575940 100.6599880
  21.0065970  14.3321440 100.9396640  21.4957110  12.9530770 100.5513060
  26.3415250  14.5599040  98.7048970  26.7823340  14.5044140  97.8570570
  26.0722840  15.4757050  98.7759150  28.2053820  14.1914280  96.7157790
  28.1442220  13.2475500  96.5688810  28.9845850  14.2994370  97.2611250
  12.5106570  30.3306640  95.6781740  12.3428610  29.6977320  96.3763630
  11.6441080  30.5366040  95.3275930  13.1334590  14.1623420  93.1813600
  13.8913950  14.2752300  92.6077630  12.6711760  14.9992620  93.1357030
  19.6748400  16.2762690  96.1715910  18.8622910  15.9019580  95.8311790
  20.1790040  15.5207770  96.4737100  24.1773380  12.9405140  97.4098980
  24.7802750  13.5125350  97.8847500  23.4366370  13.5044580  97.1872880
  27.3207980  13.3426700  92.6839260  27.5158610  14.2410150  92.9506690
  26.5337850  13.1113780  93.1772210  14.1169270  29.0239870  93.1231880
  13.5916890  29.4047900  92.4193840  14.0413850  29.6490640  93.8441590
  15.5059740  14.6887470  91.7215570  16.0352500  13.9017270  91.5923520
  16.1388060  15.3678660  91.9551100  17.6997580  14.4262610  94.7760960
  17.0700320  13.7249920  94.9431090  17.1602720  15.1866740  94.5594120
  28.8734590  30.5827410  94.4445820  29.0486780  29.8965150  93.8006740
  28.1756160  31.1074460  94.0522490  16.7162240  30.9722250  91.9981130
  17.4481060  30.6881530  91.4505020  16.9755910  30.7335530  92.8880510
  15.8777030  27.0886980  92.0027460  15.2485910  27.5572080  92.5513290
  15.9924860  26.2436200  92.4373650  23.3326750  21.1392640  78.1528660
  23.2520800  20.2247250  77.8820370  22.9191170  21.6359710  77.4468370
  21.4644790  22.9171660  80.0337930  20.6886890  22.4372100  80.3236500
  22.1157720  22.2377310  79.8594090  15.4810620  23.2291470  80.9113690
  14.6495500  22.9740180  81.3110200  16.0891600  23.3002240  81.6471610
  25.4852220  27.3231850  78.8137060  25.0233750  26.5519090  79.1424230
  26.2977770  27.3497920  79.3189510  15.4611880  27.2631560  81.1071710
  15.7639920  26.3729300  80.9281930  16.2055470  27.8201780  80.8793960
  13.8902570  18.1893360  74.6956080  13.0019270  18.5309330  74.5935960
  14.1743760  17.9893680  73.8036910  11.8535580  20.7899010  80.5795780
  12.4251690  20.0221210  80.5799420  11.8537120  21.0887770  79.6702390
  21.7115530  29.6089860  78.4341050  21.0926970  30.0647360  77.8635490
  22.5667310  29.7641320  78.0330750  20.9053780  25.5928850  80.0408090
  20.8362060  24.6518790  79.8797220  21.6673640  25.6830260  80.6130660
  13.0960450  16.1983370  82.3664710  12.9163290  15.3009120  82.6467470
  12.6940530  16.7455240  83.0411660  21.9358950  18.3999230  80.2677020
  22.3123770  17.5271110  80.1550690  21.8378460  18.7357930  79.3767460
  16.0663960  16.7724860  75.7294460  16.1730710  17.6728590  76.0363220
  15.1556320  16.7242830  75.4389110  25.7183070  15.8949670  77.2005360
  26.5392690  15.4046240  77.2430840  25.7517150  16.4847330  77.9537200
  13.7147120  18.6943870  80.9747050  14.3957230  18.9582240  81.5934450
  13.3995170  17.8544740  81.3085060  17.9071690  19.7411230  80.0619640
  18.4149910  20.2392200  80.7024660  18.4384930  18.9646430  79.8859000
  30.0082620  17.9116420  83.7648990  29.3034790  18.2998130  83.2464100
  30.2740540  18.6066710  84.3669920  16.1907790  14.3809790  84.3283060
  16.1926230  14.8982180  83.5228960  15.3612100  13.9039970  84.3052990
  22.5778880  24.4929100  75.8272960  21.9596150  24.9578550  75.2635680
  23.0902130  25.1856580  76.2442470  17.4410640  24.0204970  82.5056560
  17.1080020  24.6473890  83.1477630  17.6177320  24.5466850  81.7258230
  25.9544550  17.8350050  79.9732900  25.2500120  18.1234940  80.5536010
  26.3156710  18.6450160  79.6132460  15.8723120  16.0919750  82.3353510
  16.2139930  16.9361800  82.0407380  14.9338930  16.2403490  82.4518850
  16.6529740  25.9885770  84.3205740  17.2703740  26.6636850  84.0390190
  15.7922860  26.3973750  84.2293240  11.9462080  25.1785630  73.2012590
  11.5690060  25.6672730  72.4697490  12.2035150  25.8510910  73.8319120
  27.5707330  27.4525180  82.2360380  26.8870850  28.1224290  82.2277050
  28.1101620  27.6505830  81.4705240  29.0231470  17.2804840  80.3642110
  28.0756380  17.3143820  80.4957540  29.3481460  18.0943790  80.7491470
  19.5551010  13.5802020  78.6598100  19.8625990  13.0248910  77.9433600
  18.6251710  13.7146480  78.4771090  25.1066070  29.2969310  80.9505560
  25.1193230  28.8931600  80.0827820  24.5541290  30.0716600  80.8466990
  26.4011490  26.0185530  76.0395730  26.2907820  25.0759860  76.1645150
  26.3979740  26.3801170  76.9258490  24.5051510  24.1999150  82.2788170
  24.9220300  23.9859260  81.4441630  25.2291330  24.4571940  82.8496790
  21.9431770  21.6450850  75.3958220  21.0161050  21.5788230  75.6246690
  22.0956590  22.5830980  75.2813460  21.9300850  17.9167850  72.3925380
  20.9904520  18.0781810  72.4777840  22.2484110  18.6353530  71.8461370
  28.4513610  22.5986370  82.3704410  27.6232240  22.6679460  81.8954540
  29.0464090  23.1840680  81.9020240  25.9729060  23.2071150  75.8993470
  25.3541480  22.8690700  75.2519770  25.9553510  22.5630910  76.6072660
  25.4155620  19.3855690  83.3159280  25.0026800  20.2109400  83.5699270
  24.6831570  18.8000730  83.1235640  17.5488410  22.1715590  78.1777950
  17.1445410  21.4592840  77.6823850  17.6351530  21.8268830  79.0665990
  18.0170110  25.8583150  80.3417160  17.7198400  25.2528620  79.6624940
  18.9669930  25.8960460  80.2306520  16.2617030  18.9458800  81.9576990
  16.8131620  19.0554140  81.1830240  16.7760540  19.3196400  82.6732220
  26.1055720  29.4315020  84.0040260  25.6286280  30.2387210  83.8112870
  25.4217510  28.7793350  84.1566470  17.1088540  25.5964840  86.9924960
  16.2117070  25.8204810  87.2398360  17.1341410  25.7199780  86.0436360
  24.1493760  22.4457960  72.9066220  24.5887040  21.6080390  72.7604040
  24.8622180  23.0787360  72.9930360  15.9359760  22.4678160  85.5682330
  15.7967530  23.3400960  85.9369730  15.0541120  22.1250970  85.4230270
  22.2589140  27.3854030  76.8747460  22.6985050  28.1278360  76.4602850
  22.1976030  27.6280600  77.7986420  17.7340110  28.4099860  87.7767480
  17.7055540  28.8142810  86.9095910  17.5705080  27.4810220  87.6139080
  27.7310900  13.7000770  71.2207260  27.4183560  13.7927600  72.1206330
  28.4923370  14.2781800  71.1704690  14.2493040  21.0660570  75.6784600
  14.1290640  21.7922660  75.0665870  13.9393930  20.2963480  75.2012510
  29.6854930  29.1926960  89.0731650  30.1614650  29.6709850  89.7520730
  30.3062090  29.1244450  88.3477150  11.8878410  24.2375710  81.4853240
  11.9658830  24.3724480  80.5408960  12.5020090  23.5291600  81.6781360
  13.1326040  25.9375900  77.8959420  12.7254120  26.0790490  77.0413020
  14.0239050  25.6536060  77.6930630  29.0888180  26.3839810  86.2331660
  29.2151240  26.1451690  85.3148840  29.1309560  25.5524350  86.7053740
  22.9504920  30.0867810  84.8026470  23.4649590  29.9975820  85.6048900
  22.1074000  30.4327510  85.0954380  24.9259320  30.3723150  74.2310470
  24.7660460  30.0826090  75.1292300  24.7606030  29.5963280  73.6955700
  17.4047700  30.1521680  76.0082090  17.2290180  29.2357220  75.7949890
  16.5503440  30.5108970  76.2479890  24.6285450  27.8810710  72.7908470
  23.9350610  27.8788000  72.1310750  25.3708310  27.4570030  72.3602640
  24.1935380  29.5073420  76.8656960  24.6492330  28.7262800  77.1795580
  24.5327900  30.2180240  77.4098140  28.9412190  18.4372270  87.1981400
  28.3256460  18.9451940  86.6696860  28.6208610  17.5370600  87.1407340
  11.9437930  25.2789880  84.0247700  12.1068970  24.8095240  83.2067070
  12.4090380  24.7713440  84.6896540  16.7156700  14.4095640  79.0608270
  16.2724850  15.1905180  78.7292790  17.2741690  14.7325530  79.7679210
  21.0026510  17.2764160  84.6643590  20.5405880  17.4847180  85.4763530
  20.6004620  16.4623510  84.3614260  26.0031020  18.4973110  85.7940250
  25.1524610  18.1978860  86.1149320  25.8432810  18.7415120  84.8824070
  23.0980730  19.9974860  87.8939040  23.4234140  19.1638610  87.5541270
  23.8861060  20.5203380  88.0417370  19.8315520  14.0306340  73.9414100
  19.2069700  14.0266210  74.6667410  19.7445640  13.1637300  73.5450070
  18.7532600  14.9542970  80.9197870  19.0504930  15.8605800  80.8389890
  19.3018160  14.4661750  80.3057440  16.5070920  19.5329210  76.7889520
  16.2811840  19.3166380  77.6936140  15.7263450  19.9657670  76.4435490
  23.7368680  19.5392580  75.3880170  23.1377570  20.2628380  75.2043790
  24.2848290  19.4769360  74.6056620  18.9470130  20.4314790  87.4549790
  18.8513730  19.4909520  87.3050190  19.7902110  20.6529860  87.0597860
  22.3433550  18.1756120  77.4183450  22.7363120  18.4928320  76.6052140
  22.7050400  17.2968000  77.5327970  14.0780670  16.8428460  85.6083570
  13.6844060  17.6903670  85.8156350  13.3899070  16.2054830  85.7992210
  20.6525720  16.9263430  88.6780310  19.9624040  16.7335630  89.3126400
  21.3958020  17.2098070  89.2104610  11.3797720  14.7656920  79.6413650
  11.0910770  15.3359780  80.3538630  12.1243480  14.2861370  80.0044880
  11.5667950  18.7077040  70.8516370  11.4842620  19.6507800  70.9931360
  11.2151010  18.5651950  69.9728720  22.9288690  20.7661870  81.5134230
  22.1969810  21.2748680  81.8624330  22.5313030  19.9491850  81.2123010
  19.3666080  17.4416070  79.9186720  19.3702140  17.0006020  79.0691260
  20.2617200  17.7633400  80.0258540  15.2168460  17.3242560  78.8780930
  14.8768510  17.8017790  79.6347980  14.4545780  16.8707680  78.5182030
  19.4286230  18.4428150  72.9093480  19.5499050  18.4014630  73.8579300
  19.0434740  19.3052300  72.7540210  23.3914600  16.2195550  80.9257170
  23.4087340  16.6704200  81.7699020  23.1430180  15.3201190  81.1390610
  18.4407730  20.7529290  72.3076780  17.8724630  20.3047540  71.6812690
  19.1496730  21.1122070  71.7741930  26.8185350  13.6327730  86.7643550
  27.1431120  12.9017390  87.2901530  26.8541860  13.3141370  85.8624540
  13.5176910  24.6541310  86.1843510  13.1331700  24.0134980  86.7826470
  13.8289100  25.3577430  86.7538240  19.6674050  21.5017850  81.6652130
  20.0344180  21.0276420  82.4113470  19.4779110  22.3759420  82.0060470
  12.5314540  16.2461540  77.7945600  12.2461460  15.8817210  78.6324220
  12.4693400  15.5142000  77.1808740  17.4573420  20.5426490  83.9836340
  17.1530490  21.4218470  84.2086700  18.4119880  20.6026280  84.0193780
  15.9855210  24.7487480  74.5803190  15.2117470  24.2085100  74.4201910
  16.7149840  24.2294090  74.2420950  26.7443190  23.7452840  80.3729580
  27.4642310  24.2408130  79.9825690  26.5425010  23.0670730  79.7283450
  22.2053130  15.1390800  74.5158970  21.3917740  14.6403970  74.4404280
  22.0115080  15.9789050  74.0995320  22.1261990  23.8161900  86.2598580
  22.0599300  22.8957570  86.0056170  21.4967130  23.9137340  86.9743220
  24.9201520  19.5110450  72.8121130  25.8081140  19.8227680  72.6372470
  24.8906610  18.6382700  72.4201710  16.0292610  24.4167860  78.2182000
  16.5471280  23.6136120  78.1638890  15.5776630  24.3547000  79.0598830
  20.9162110  25.6834140  73.4909300  21.2577810  26.4276370  72.9952620
  20.0874820  25.9965260  73.8534130  13.5137150  21.3829230  85.1307700
  13.1552090  22.0483080  85.7181040  13.2191710  20.5512780  85.5020320
  16.7150270  21.8413470  88.0147250  16.4150410  21.9870650  87.1175070
  17.4861510  21.2818760  87.9220640  22.0578720  26.6382470  86.0102380
  22.0723260  25.7063430  85.7921290  21.3503820  26.7242230  86.6492150
  27.1915790  20.8222290  72.2800990  27.1079510  21.2536510  71.4297430
  27.9109980  21.2820640  72.7127810  28.2689930  23.2789810  85.3570960
  27.5438120  23.8718590  85.1600350  28.7965390  23.2713350  84.5584330
  28.2203040  27.6764550  75.0083120  27.5779200  27.0220170  75.2826840
  27.8333700  28.0819640  74.2323790  23.7989520  25.0049980  78.8554810
  24.1513340  24.4078110  78.1956180  22.9151850  24.6794210  79.0263060
  19.8852800  25.7647670  76.2625220  20.5723930  26.3116880  76.6432810
  19.0985220  26.3088400  76.2974830  12.0245200  21.3820490  71.7542300
  12.8940050  21.6645290  72.0378220  11.5335520  22.1956360  71.6391110
  19.1880010  22.7693700  75.8750580  19.6442790  23.5798950  76.1010770
  18.8368220  22.4516840  76.7069070  21.4912620  28.2800040  83.1042880
  22.1354840  28.4859420  83.7816300  21.8542060  27.5188440  82.6513730
  15.0891790  13.1131350  76.3473100  14.9606420  13.1049250  77.2958020
  14.2653810  13.4514440  75.9964110  22.7644700  26.2832390  81.8220330
  23.4066930  25.5825550  81.9352500  23.2894050  27.0630830  81.6417220
  26.6100420  26.5681010  71.5459470  26.3838000  25.8511450  72.1384110
  26.2196620  26.3193450  70.7081220  24.5382320  27.0827290  85.0256390
  24.8738560  27.6693980  85.7034310  23.6182660  26.9520000  85.2554180
  12.3916450  30.5947870  72.3203930  12.7514090  31.1937210  71.6661200
  12.2508790  31.1407760  73.0938960  12.0885720  14.8722470  85.8079800
  11.3744240  15.0719390  86.4132410  12.5080760  14.0962040  86.1794600
  26.1916670  24.4852950  73.2073630  25.9038370  24.9465640  73.9951510
  26.9868840  24.0250720  73.4757850  12.3758310  28.8602730  86.7946330
  12.4849430  27.9197470  86.6541720  11.7238870  29.1257480  86.1460060
  20.3670900  27.1318620  88.1944450  20.0467770  26.4127860  88.7390140
  19.6929260  27.8073690  88.2680510  18.4085070  27.9779070  73.1377600
  18.3995170  28.7108760  72.5222110  17.4883430  27.7310650  73.2304560
  14.0091710  23.1993960  73.8824360  13.4019660  23.9392860  73.8919660
  14.4841060  23.2893320  73.0562560  23.5824500  17.3644780  83.5581250
  23.9505320  16.5439990  83.8860820  22.7222700  17.4246670  83.9736900
  26.9486530  16.3201720  74.3668810  26.3199690  16.4247390  73.6527040
  26.4538450  16.5398500  75.1562690  21.3944670  28.0407310  71.8002790
  21.4956650  27.8371300  70.8704770  20.4946410  27.7865590  72.0050570
  18.9170560  18.5987670  75.7826690  18.2086710  19.0674010  76.2240300
  19.2015040  17.9409680  76.4171880  20.5426490  20.0184370  83.7819220
  21.0411740  20.4930190  84.4471070  20.6849440  19.0947890  83.9889250
  22.9485990  15.3238330  77.2222480  22.8253770  15.3424460  76.2731990
  23.8970550  15.3717270  77.3420880  20.0362780  30.5593630  76.4950460
  20.2904280  30.5215020  75.5729830  19.0875260  30.4326960  76.4878710
  17.1205580  16.9072750  73.1577400  17.9696110  17.3442900  73.0917590
  16.7536850  17.2193010  73.9849460  27.7493350  16.2352330  84.6247610
  27.2466950  16.9757730  84.9641420  28.5650010  16.6236330  84.3084400
  26.0415360  21.4785510  78.0708970  25.1005500  21.4935740  78.2456660
  26.3559430  20.6921470  78.5169270  16.0197000  23.1605110  71.6312930
  16.7860270  23.0486470  72.1938360  16.0971690  22.4643080  70.9789700
  14.7143760  20.5930180  72.3145820  14.7947350  19.6457690  72.4263220
  15.6063510  20.9237060  72.4206480  28.0440940  28.6494360  79.7463230
  28.1688360  29.4725530  80.2187040  28.9106500  28.4385090  79.3987380
  15.5158470  30.7425570  79.4180360  16.2520950  30.1941030  79.6888930
  15.8999390  31.6081580  79.2786350  12.4003950  26.8099140  75.2921870
  11.4743730  27.0520280  75.2827280  12.8660380  27.6373400  75.1706620
  14.5216750  29.9271640  88.6065940  15.3229480  30.2483690  89.0201340
  14.0068570  29.5667220  89.3285850  18.6260780  29.9155880  71.2405930
  19.4189390  30.2044710  70.7887720  18.1065130  29.4848050  70.5618410
  23.3581380  26.0351510  88.5541350  22.7519540  26.0583110  87.8137100
  23.0535490  25.3034550  89.0908600  24.7881750  29.7631800  87.1650760
  25.7403500  29.6789820  87.1151000  24.6409970  30.4273510  87.8384550
  27.6790950  29.1426010  72.6642670  27.3932460  28.7291150  71.8496850
  27.4810500  30.0713720  72.5443190  12.2414560  22.4145100  87.5501990
  12.7453580  21.8352380  88.1218220  11.5021980  22.6985330  88.0878360
  19.1438180  25.1359290  71.1048280  19.0388820  24.5211640  71.8309660
  18.9762400  24.6125180  70.3211290  19.2952500  23.8216090  87.0837510
  18.5298170  24.3901090  86.9992180  19.4768460  23.5292300  86.1905740
  22.3840910  24.1979320  71.7090270  21.8351010  24.6448620  72.3533010
  23.0060170  23.6928570  72.2327940  26.4375850  25.5521420  87.6412530
  27.1785320  25.8897180  87.1379990  25.6748530  25.7213480  87.0882300
  14.2737640  20.5574690  88.4452060  14.3142980  20.2588560  89.3537290
  15.1283140  20.9582300  88.2859580  18.0516030  23.1570240  73.6055570
  18.4732450  22.9910110  74.4486960  18.1766870  22.3470470  73.1110710
  16.2143450  19.1366790  86.4126550  15.6839910  18.6457740  85.7849890
  16.8831520  19.5650990  85.8784480  20.5643670  22.1807850  70.8532670
  21.0849330  21.4656870  70.4873820  21.2112070  22.8193720  71.1533180
  25.1121510  23.6036250  86.1767740  25.5262530  23.7581330  87.0258160
  24.1772510  23.7291470  86.3393520  25.5843680  20.9432410  88.1806890
  26.1664450  20.1884730  88.0927370  25.7605450  21.4739850  87.4038370
  16.7015750  16.1029160  86.4923840  16.6072620  15.4849910  85.7674710
  16.1213140  16.8295450  86.2653750  19.4677190  14.6602400  83.5251230
  19.0194490  14.6826660  82.6796780  18.8342390  14.2621420  84.1221530
  19.8736740  23.5556730  84.1463670  20.2924850  24.3989460  83.9739910
  18.9545370  23.6928770  83.9170450  22.2100640  21.2872910  85.5301510
  22.3296850  20.6914050  86.2696350  23.0694640  21.3242600  85.1102810
  24.5488540  21.8410100  84.1064020  24.0223760  22.3652720  83.5029160
  24.8919880  22.4737490  84.7373750  16.9474930  19.2303470  70.5513730
  16.7463990  18.3670830  70.9127070  16.7766980  19.1436830  69.6135330
  17.7244160  29.8609740  85.2621400  17.1865250  30.5855800  84.9430100
  17.9778120  29.3840080  84.4718740  18.9769410  17.8294260  86.7877330
  19.5669100  17.5210110  87.4755150  18.1589650  17.3574010  86.9437230
  23.7962840  17.4460070  87.0210350  23.1078360  16.7841610  86.9560340
  24.5168860  16.9998340  87.4658810  24.4263240  14.0411700  73.0800610
  24.7065530  13.1979600  73.4360030  23.6528970  14.2734810  73.5939360
  15.7457730  16.3304090  70.5391610  16.0483630  16.3371520  69.6310760
  16.4852320  15.9801950  71.0359270  20.5806370  31.0960950  85.5208050
  20.5065070  31.9996090  85.8280420  19.6785210  30.7772850  85.4930120
  18.9642660  15.2738710  71.5247810  18.6164660  14.5962700  70.9450260
  19.1655430  14.8128220  72.3391200  21.1291700  30.2619460  73.1434410
  22.0242490  30.6004430  73.1653170  21.1609330  29.5398870  72.5158690
  14.7687860  25.6346510  71.3721410  15.2062730  26.1776180  72.0278990
  15.2535590  24.8093460  71.3817750  11.9833660  28.4235540  78.8241670
  12.3136670  27.5556600  78.5920310  12.4124660  28.6294060  79.6546630
  16.5795580  26.7544550  76.4843640  16.2791120  26.6309520  77.3847550
  16.4733070  25.8953140  76.0759370  12.4723870  29.2906130  81.5623300
  12.0354860  29.4706930  82.3947450  13.0401550  30.0480750  81.4205020
  28.1086050  28.7923130  85.8500610  27.5088040  28.8515690  85.1064530
  28.2379950  27.8528110  85.9797460  29.3487500  26.5340950  71.1870320
  28.5180460  26.6017600  71.6577550  29.5259330  27.4245070  70.8837180
  28.8043960  23.2788430  73.6904520  29.5662870  23.8485080  73.7964210
  28.8198330  22.7115630  74.4612830  12.3048300  21.8026360  77.9212180
  11.6497140  21.5338000  77.2771880  13.1426250  21.6930840  77.4714160
  29.8103930  24.1338530  78.5346450  30.1812760  23.3505850  78.1282420
  30.4505860  24.8227630  78.3563750  26.7937690  25.5175110  83.9476770
  25.9797530  25.9472270  84.2102560  27.2011890  26.1293520  83.3345820
  28.8563130  23.5722800  70.8477040  29.1311970  24.4801680  70.7196260
  28.6673870  23.5085330  71.7839030  25.2538740  16.5967650  72.1430670
  25.6723620  16.4098630  71.3027330  24.9474800  15.7446700  72.4533600
  28.7528470  21.5091790  75.8406470  28.3772070  20.7419720  75.4087760
  28.0231590  21.8914490  76.3281400  13.3424230  22.1878930  82.4615520
  13.7097270  22.1006330  83.3411540  12.7735050  21.4245480  82.3622380
  28.1428090  20.6563310  85.4745990  27.9114180  20.4276060  84.5743940
  28.4032640  21.5762860  85.4290880  12.8940230  19.0988020  86.3673940
  11.9996280  19.0654780  86.7067650  13.4337780  19.2974810  87.1325190
  26.5816160  15.8819740  88.2525690  27.4586340  15.8903140  88.6359690
  26.5937000  15.1450580  87.6418040  11.5186380  19.0125290  73.8637510
  10.6150460  19.2755490  73.6889170  12.0027000  19.2836460  73.0837470
  28.0279430  19.7349280  79.1413710  28.5516910  19.2411930  78.5103880
  28.6138850  19.8699640  79.8861280  28.2069150  19.8189150  82.6633260
  27.2571860  19.7852690  82.7778250  28.3882160  20.7289260  82.4283030
  14.0613590  18.0690830  71.7731890  14.7705290  17.6474050  71.2879170
  13.3453530  18.1366060  71.1415240  13.7087750  14.1230160  70.8134540
  14.4315880  14.6639100  71.1315760  13.9812270  13.8493580  69.9376080
  27.5179400  18.9922630  75.0806120  28.0138520  18.7593500  75.8655000
  27.3195470  18.1534470  74.6643760  13.3979940  13.3736350  80.7157160
  14.0456130  12.8233730  80.2752320  13.8181780  13.6279500  81.5372970
  28.9466560  17.6283580  77.6143800  28.8365840  17.4739620  78.5526070
  29.7074150  17.1004520  77.3719210  27.2932280  13.5677710  84.0726800
  27.9304500  14.1811850  84.4385990  27.4407170  13.6038370  83.1276030
  29.8356830  15.4591500  70.8549940  30.7606140  15.3272680  70.6468230
  29.8132620  15.5384320  71.8086390  29.9095320  16.2302160  73.4806650
  29.1146820  16.1647280  74.0099560  30.1138600  17.1652800  73.4692000
  26.8513740  30.2693710  77.4745040  27.4472810  29.9478280  76.7979460
  27.1091890  29.7965530  78.2658310  13.1511940  13.5292020  83.4582480
  12.8026760  13.9855840  84.2240660  12.8199640  12.6349150  83.5404910
  14.7576310  26.7011620  87.6235670  14.7145940  26.3304530  88.5050130
  14.8887320  27.6389190  87.7637490  18.4582340  28.2571210  83.2245390
  18.2173700  28.5245770  82.3375910  19.3984980  28.4276940  83.2796250
  20.6636760  14.7203900  86.9801900  20.6025650  15.3125730  87.7297310
  21.6037140  14.6129860  86.8352160  23.3011320  14.3773960  86.6194190
  23.9151730  14.6953250  85.9575270  23.8460880  13.8922550  87.2390050
  29.7186500  30.2765590  84.0256030  29.2244780  30.6734460  83.3083160
  29.1099790  29.6514800  84.4193310  13.8232580  13.0568220  86.7333250
  14.3715570  12.8756270  85.9699360  13.8887890  12.2662330  87.2689560
  14.5964340  29.6473870  84.7433450  14.0024660  29.5158570  85.4823490
  14.5888180  28.8112010  84.2775550  24.0419360  12.9406100  82.9463480
  23.1679200  13.2741210  82.7436410  23.9330110  12.4679280  83.7715350
  24.9491340  15.1476970  84.3305200  24.6204700  14.3328730  83.9506930
  25.8973640  15.1046780  84.2070890  27.4025950  30.9189010  81.3042770
  26.9428920  31.6704820  80.9300790  26.7738410  30.1995480  81.2457570
  14.2276570  27.0132250  83.6941490  13.5010630  26.3937540  83.6267440
  14.2885720  27.4072860  82.8239570  17.8321670  29.2277250  80.4790900
  18.3486690  28.6164610  79.9539160  18.4819050  29.7306030  80.9701910
  20.5717170  30.1185740  81.3059880  20.8594980  29.8640040  80.4292890
  21.0840390  29.5663100  81.8965450  21.7894180  13.8575940  81.8856390
  21.0065970  14.3321440  82.1653150  21.4957110  12.9530770  81.7769570
  26.3415250  14.5599040  79.9305480  26.7823340  14.5044140  79.0827080
  26.0722840  15.4757050  80.0015660  28.2053820  14.1914280  77.9414300
  28.1442220  13.2475500  77.7945320  28.9845850  14.2994370  78.4867760
  12.5106570  30.3306640  76.9038250  12.3428610  29.6977320  77.6020140
  11.6441080  30.5366040  76.5532440  13.1334590  14.1623420  74.4070110
  13.8913950  14.2752300  73.8334140  12.6711760  14.9992620  74.3613540
  19.6748400  16.2762690  77.3972420  18.8622910  15.9019580  77.0568300
  20.1790040  15.5207770  77.6993610  24.1773380  12.9405140  78.6355490
  24.7802750  13.5125350  79.1104010  23.4366370  13.5044580  78.4129390
  27.3207980  13.3426700  73.9095770  27.5158610  14.2410150  74.1763200
  26.5337850  13.1113780  74.4028720  14.1169270  29.0239870  74.3488390
  13.5916890  29.4047900  73.6450350  14.0413850  29.6490640  75.0698100
  15.5059740  14.6887470  72.9472080  16.0352500  13.9017270  72.8180030
  16.1388060  15.3678660  73.1807610  17.6997580  14.4262610  76.0017470
  17.0700320  13.7249920  76.1687600  17.1602720  15.1866740  75.7850630
  20.6389530  31.0401840  88.6728080  21.5656840  30.8046110  88.7164040
  20.6239960  31.8673840  88.1914110  28.8734590  30.5827410  75.6702330
  29.0486780  29.8965150  75.0263250  28.1756160  31.1074460  75.2779000
  17.8253140  13.7046590  88.4369960  17.5437410  14.2080190  87.6730780
  18.2072840  12.9068340  88.0712090  16.7162240  30.9722250  73.2237640
  17.4481060  30.6881530  72.6761530  16.9755910  30.7335530  74.1137020
  15.8777030  27.0886980  73.2283970  15.2485910  27.5572080  73.7769800
  15.9924860  26.2436200  73.6630160  24.4268600  13.1200170  89.0150430
  24.3134050  13.4394780  89.9101950  25.2438340  13.5212680  88.7187710
  27.2067090  30.2671700  88.4969120  27.9992410  29.7720930  88.2895080
  27.5000240  30.9461840  89.1044730  23.3326750  21.1392640  59.3785170
  23.2520800  20.2247250  59.1076880  22.9191170  21.6359710  58.6724880
  21.4644790  22.9171660  61.2594440  20.6886890  22.4372100  61.5493010
  22.1157720  22.2377310  61.0850600  15.4810620  23.2291470  62.1370200
  14.6495500  22.9740180  62.5366710  16.0891600  23.3002240  62.8728120
  25.4852220  27.3231850  60.0393570  25.0233750  26.5519090  60.3680740
  26.2977770  27.3497920  60.5446020  15.4611880  27.2631560  62.3328220
  15.7639920  26.3729300  62.1538440  16.2055470  27.8201780  62.1050470
  13.8902570  18.1893360  55.9212590  13.0019270  18.5309330  55.8192470
  14.1743760  17.9893680  55.0293420  11.8535580  20.7899010  61.8052290
  12.4251690  20.0221210  61.8055930  11.8537120  21.0887770  60.8958900
  21.7115530  29.6089860  59.6597560  21.0926970  30.0647360  59.0892000
  22.5667310  29.7641320  59.2587260  20.9053780  25.5928850  61.2664600
  20.8362060  24.6518790  61.1053730  21.6673640  25.6830260  61.8387170
  13.0960450  16.1983370  63.5921220  12.9163290  15.3009120  63.8723980
  12.6940530  16.7455240  64.2668170  21.9358950  18.3999230  61.4933530
  22.3123770  17.5271110  61.3807200  21.8378460  18.7357930  60.6023970
  16.0663960  16.7724860  56.9550970  16.1730710  17.6728590  57.2619730
  15.1556320  16.7242830  56.6645620  25.7183070  15.8949670  58.4261870
  26.5392690  15.4046240  58.4687350  25.7517150  16.4847330  59.1793710
  13.7147120  18.6943870  62.2003560  14.3957230  18.9582240  62.8190960
  13.3995170  17.8544740  62.5341570  17.9071690  19.7411230  61.2876150
  18.4149910  20.2392200  61.9281170  18.4384930  18.9646430  61.1115510
  30.0082620  17.9116420  64.9905500  29.3034790  18.2998130  64.4720610
  30.2740540  18.6066710  65.5926430  16.1907790  14.3809790  65.5539570
  16.1926230  14.8982180  64.7485470  15.3612100  13.9039970  65.5309500
  22.5778880  24.4929100  57.0529470  21.9596150  24.9578550  56.4892190
  23.0902130  25.1856580  57.4698980  17.4410640  24.0204970  63.7313070
  17.1080020  24.6473890  64.3734140  17.6177320  24.5466850  62.9514740
  25.9544550  17.8350050  61.1989410  25.2500120  18.1234940  61.7792520
  26.3156710  18.6450160  60.8388970  15.8723120  16.0919750  63.5610020
  16.2139930  16.9361800  63.2663890  14.9338930  16.2403490  63.6775360
  16.6529740  25.9885770  65.5462250  17.2703740  26.6636850  65.2646700
  15.7922860  26.3973750  65.4549750  11.9462080  25.1785630  54.4269100
  11.5690060  25.6672730  53.6954000  12.2035150  25.8510910  55.0575630
  27.5707330  27.4525180  63.4616890  26.8870850  28.1224290  63.4533560
  28.1101620  27.6505830  62.6961750  29.0231470  17.2804840  61.5898620
  28.0756380  17.3143820  61.7214050  29.3481460  18.0943790  61.9747980
  19.5551010  13.5802020  59.8854610  19.8625990  13.0248910  59.1690110
  18.6251710  13.7146480  59.7027600  25.1066070  29.2969310  62.1762070
  25.1193230  28.8931600  61.3084330  24.5541290  30.0716600  62.0723500
  26.4011490  26.0185530  57.2652240  26.2907820  25.0759860  57.3901660
  26.3979740  26.3801170  58.1515000  24.5051510  24.1999150  63.5044680
  24.9220300  23.9859260  62.6698140  25.2291330  24.4571940  64.0753300
  21.9431770  21.6450850  56.6214730  21.0161050  21.5788230  56.8503200
  22.0956590  22.5830980  56.5069970  21.9300850  17.9167850  53.6181890
  20.9904520  18.0781810  53.7034350  22.2484110  18.6353530  53.0717880
  28.4513610  22.5986370  63.5960920  27.6232240  22.6679460  63.1211050
  29.0464090  23.1840680  63.1276750  25.9729060  23.2071150  57.1249980
  25.3541480  22.8690700  56.4776280  25.9553510  22.5630910  57.8329170
  25.4155620  19.3855690  64.5415790  25.0026800  20.2109400  64.7955780
  24.6831570  18.8000730  64.3492150  17.5488410  22.1715590  59.4034460
  17.1445410  21.4592840  58.9080360  17.6351530  21.8268830  60.2922500
  18.0170110  25.8583150  61.5673670  17.7198400  25.2528620  60.8881450
  18.9669930  25.8960460  61.4563030  16.2617030  18.9458800  63.1833500
  16.8131620  19.0554140  62.4086750  16.7760540  19.3196400  63.8988730
  26.1055720  29.4315020  65.2296770  25.6286280  30.2387210  65.0369380
  25.4217510  28.7793350  65.3822980  17.1088540  25.5964840  68.2181470
  16.2117070  25.8204810  68.4654870  17.1341410  25.7199780  67.2692870
  24.1493760  22.4457960  54.1322730  24.5887040  21.6080390  53.9860550
  24.8622180  23.0787360  54.2186870  15.9359760  22.4678160  66.7938840
  15.7967530  23.3400960  67.1626240  15.0541120  22.1250970  66.6486780
  22.2589140  27.3854030  58.1003970  22.6985050  28.1278360  57.6859360
  22.1976030  27.6280600  59.0242930  17.7340110  28.4099860  69.0023990
  17.7055540  28.8142810  68.1352420  17.5705080  27.4810220  68.8395590
  27.7310900  13.7000770  52.4463770  27.4183560  13.7927600  53.3462840
  28.4923370  14.2781800  52.3961200  14.2493040  21.0660570  56.9041110
  14.1290640  21.7922660  56.2922380  13.9393930  20.2963480  56.4269020
  29.6854930  29.1926960  70.2988160  30.1614650  29.6709850  70.9777240
  30.3062090  29.1244450  69.5733660  11.8878410  24.2375710  62.7109750
  11.9658830  24.3724480  61.7665470  12.5020090  23.5291600  62.9037870
  13.1326040  25.9375900  59.1215930  12.7254120  26.0790490  58.2669530
  14.0239050  25.6536060  58.9187140  29.0888180  26.3839810  67.4588170
  29.2151240  26.1451690  66.5405350  29.1309560  25.5524350  67.9310250
  22.9504920  30.0867810  66.0282980  23.4649590  29.9975820  66.8305410
  22.1074000  30.4327510  66.3210890  17.4047700  30.1521680  57.2338600
  17.2290180  29.2357220  57.0206400  16.5503440  30.5108970  57.4736400
  24.1935380  29.5073420  58.0913470  24.6492330  28.7262800  58.4052090
  24.5327900  30.2180240  58.6354650  28.9412190  18.4372270  68.4237910
  28.3256460  18.9451940  67.8953370  28.6208610  17.5370600  68.3663850
  11.9437930  25.2789880  65.2504210  12.1068970  24.8095240  64.4323580
  12.4090380  24.7713440  65.9153050  16.7156700  14.4095640  60.2864780
  16.2724850  15.1905180  59.9549300  17.2741690  14.7325530  60.9935720
  21.0026510  17.2764160  65.8900100  20.5405880  17.4847180  66.7020040
  20.6004620  16.4623510  65.5870770  26.0031020  18.4973110  67.0196760
  25.1524610  18.1978860  67.3405830  25.8432810  18.7415120  66.1080580
  23.0980730  19.9974860  69.1195550  23.4234140  19.1638610  68.7797780
  23.8861060  20.5203380  69.2673880  19.8315520  14.0306340  55.1670610
  19.2069700  14.0266210  55.8923920  19.7445640  13.1637300  54.7706580
  18.7532600  14.9542970  62.1454380  19.0504930  15.8605800  62.0646400
  19.3018160  14.4661750  61.5313950  16.5070920  19.5329210  58.0146030
  16.2811840  19.3166380  58.9192650  15.7263450  19.9657670  57.6692000
  23.7368680  19.5392580  56.6136680  23.1377570  20.2628380  56.4300300
  24.2848290  19.4769360  55.8313130  18.9470130  20.4314790  68.6806300
  18.8513730  19.4909520  68.5306700  19.7902110  20.6529860  68.2854370
  22.3433550  18.1756120  58.6439960  22.7363120  18.4928320  57.8308650
  22.7050400  17.2968000  58.7584480  14.0780670  16.8428460  66.8340080
  13.6844060  17.6903670  67.0412860  13.3899070  16.2054830  67.0248720
  20.6525720  16.9263430  69.9036820  19.9624040  16.7335630  70.5382910
  21.3958020  17.2098070  70.4361120  11.3797720  14.7656920  60.8670160
  11.0910770  15.3359780  61.5795140  12.1243480  14.2861370  61.2301390
  11.5667950  18.7077040  52.0772880  11.4842620  19.6507800  52.2187870
  11.2151010  18.5651950  51.1985230  22.9288690  20.7661870  62.7390740
  22.1969810  21.2748680  63.0880840  22.5313030  19.9491850  62.4379520
  19.3666080  17.4416070  61.1443230  19.3702140  17.0006020  60.2947770
  20.2617200  17.7633400  61.2515050  15.2168460  17.3242560  60.1037440
  14.8768510  17.8017790  60.8604490  14.4545780  16.8707680  59.7438540
  19.4286230  18.4428150  54.1349990  19.5499050  18.4014630  55.0835810
  19.0434740  19.3052300  53.9796720  23.3914600  16.2195550  62.1513680
  23.4087340  16.6704200  62.9955530  23.1430180  15.3201190  62.3647120
  18.4407730  20.7529290  53.5333290  17.8724630  20.3047540  52.9069200
  19.1496730  21.1122070  52.9998440  26.8185350  13.6327730  67.9900060
  27.1431120  12.9017390  68.5158040  26.8541860  13.3141370  67.0881050
  13.5176910  24.6541310  67.4100020  13.1331700  24.0134980  68.0082980
  13.8289100  25.3577430  67.9794750  19.6674050  21.5017850  62.8908640
  20.0344180  21.0276420  63.6369980  19.4779110  22.3759420  63.2316980
  12.5314540  16.2461540  59.0202110  12.2461460  15.8817210  59.8580730
  12.4693400  15.5142000  58.4065250  17.4573420  20.5426490  65.2092850
  17.1530490  21.4218470  65.4343210  18.4119880  20.6026280  65.2450290
  15.9855210  24.7487480  55.8059700  15.2117470  24.2085100  55.6458420
  16.7149840  24.2294090  55.4677460  26.7443190  23.7452840  61.5986090
  27.4642310  24.2408130  61.2082200  26.5425010  23.0670730  60.9539960
  22.2053130  15.1390800  55.7415480  21.3917740  14.6403970  55.6660790
  22.0115080  15.9789050  55.3251830  22.1261990  23.8161900  67.4855090
  22.0599300  22.8957570  67.2312680  21.4967130  23.9137340  68.1999730
  24.9201520  19.5110450  54.0377640  25.8081140  19.8227680  53.8628980
  24.8906610  18.6382700  53.6458220  16.0292610  24.4167860  59.4438510
  16.5471280  23.6136120  59.3895400  15.5776630  24.3547000  60.2855340
  13.5137150  21.3829230  66.3564210  13.1552090  22.0483080  66.9437550
  13.2191710  20.5512780  66.7276830  16.7150270  21.8413470  69.2403760
  16.4150410  21.9870650  68.3431580  17.4861510  21.2818760  69.1477150
  22.0578720  26.6382470  67.2358890  22.0723260  25.7063430  67.0177800
  21.3503820  26.7242230  67.8748660  27.1915790  20.8222290  53.5057500
  27.1079510  21.2536510  52.6553940  27.9109980  21.2820640  53.9384320
  28.2689930  23.2789810  66.5827470  27.5438120  23.8718590  66.3856860
  28.7965390  23.2713350  65.7840840  28.2203040  27.6764550  56.2339630
  27.5779200  27.0220170  56.5083350  27.8333700  28.0819640  55.4580300
  23.7989520  25.0049980  60.0811320  24.1513340  24.4078110  59.4212690
  22.9151850  24.6794210  60.2519570  19.8852800  25.7647670  57.4881730
  20.5723930  26.3116880  57.8689320  19.0985220  26.3088400  57.5231340
  12.0245200  21.3820490  52.9798810  12.8940050  21.6645290  53.2634730
  11.5335520  22.1956360  52.8647620  19.1880010  22.7693700  57.1007090
  19.6442790  23.5798950  57.3267280  18.8368220  22.4516840  57.9325580
  21.4912620  28.2800040  64.3299390  22.1354840  28.4859420  65.0072810
  21.8542060  27.5188440  63.8770240  15.0891790  13.1131350  57.5729610
  14.9606420  13.1049250  58.5214530  14.2653810  13.4514440  57.2220620
  22.7644700  26.2832390  63.0476840  23.4066930  25.5825550  63.1609010
  23.2894050  27.0630830  62.8673730  24.5382320  27.0827290  66.2512900
  24.8738560  27.6693980  66.9290820  23.6182660  26.9520000  66.4810690
  12.3916450  30.5947870  53.5460440  12.7514090  31.1937210  52.8917710
  12.2508790  31.1407760  54.3195470  12.0885720  14.8722470  67.0336310
  11.3744240  15.0719390  67.6388920  12.5080760  14.0962040  67.4051110
  26.1916670  24.4852950  54.4330140  25.9038370  24.9465640  55.2208020
  26.9868840  24.0250720  54.7014360  12.3758310  28.8602730  68.0202840
  12.4849430  27.9197470  67.8798230  11.7238870  29.1257480  67.3716570
  20.3670900  27.1318620  69.4200960  20.0467770  26.4127860  69.9646650
  19.6929260  27.8073690  69.4937020  18.4085070  27.9779070  54.3634110
  18.3995170  28.7108760  53.7478620  17.4883430  27.7310650  54.4561070
  14.0091710  23.1993960  55.1080870  13.4019660  23.9392860  55.1176170
  14.4841060  23.2893320  54.2819070  23.5824500  17.3644780  64.7837760
  23.9505320  16.5439990  65.1117330  22.7222700  17.4246670  65.1993410
  26.9486530  16.3201720  55.5925320  26.3199690  16.4247390  54.8783550
  26.4538450  16.5398500  56.3819200  18.9170560  18.5987670  57.0083200
  18.2086710  19.0674010  57.4496810  19.2015040  17.9409680  57.6428390
  20.5426490  20.0184370  65.0075730  21.0411740  20.4930190  65.6727580
  20.6849440  19.0947890  65.2145760  22.9485990  15.3238330  58.4478990
  22.8253770  15.3424460  57.4988500  23.8970550  15.3717270  58.5677390
  20.0362780  30.5593630  57.7206970  20.2904280  30.5215020  56.7986340
  19.0875260  30.4326960  57.7135220  17.1205580  16.9072750  54.3833910
  17.9696110  17.3442900  54.3174100  16.7536850  17.2193010  55.2105970
  27.7493350  16.2352330  65.8504120  27.2466950  16.9757730  66.1897930
  28.5650010  16.6236330  65.5340910  26.0415360  21.4785510  59.2965480
  25.1005500  21.4935740  59.4713170  26.3559430  20.6921470  59.7425780
  16.0197000  23.1605110  52.8569440  16.7860270  23.0486470  53.4194870
  16.0971690  22.4643080  52.2046210  14.7143760  20.5930180  53.5402330
  14.7947350  19.6457690  53.6519730  15.6063510  20.9237060  53.6462990
  28.0440940  28.6494360  60.9719740  28.1688360  29.4725530  61.4443550
  28.9106500  28.4385090  60.6243890  15.5158470  30.7425570  60.6436870
  16.2520950  30.1941030  60.9145440  15.8999390  31.6081580  60.5042860
  12.4003950  26.8099140  56.5178380  11.4743730  27.0520280  56.5083790
  12.8660380  27.6373400  56.3963130  14.5216750  29.9271640  69.8322450
  15.3229480  30.2483690  70.2457850  14.0068570  29.5667220  70.5542360
  23.3581380  26.0351510  69.7797860  22.7519540  26.0583110  69.0393610
  23.0535490  25.3034550  70.3165110  24.7881750  29.7631800  68.3907270
  25.7403500  29.6789820  68.3407510  24.6409970  30.4273510  69.0641060
  12.2414560  22.4145100  68.7758500  12.7453580  21.8352380  69.3474730
  11.5021980  22.6985330  69.3134870  19.1438180  25.1359290  52.3304790
  19.0388820  24.5211640  53.0566170  18.9762400  24.6125180  51.5467800
  19.2952500  23.8216090  68.3094020  18.5298170  24.3901090  68.2248690
  19.4768460  23.5292300  67.4162250  22.3840910  24.1979320  52.9346780
  21.8351010  24.6448620  53.5789520  23.0060170  23.6928570  53.4584450
  26.4375850  25.5521420  68.8669040  27.1785320  25.8897180  68.3636500
  25.6748530  25.7213480  68.3138810  14.2737640  20.5574690  69.6708570
  14.3142980  20.2588560  70.5793800  15.1283140  20.9582300  69.5116090
  18.0516030  23.1570240  54.8312080  18.4732450  22.9910110  55.6743470
  18.1766870  22.3470470  54.3367220  16.2143450  19.1366790  67.6383060
  15.6839910  18.6457740  67.0106400  16.8831520  19.5650990  67.1040990
  20.5643670  22.1807850  52.0789180  21.0849330  21.4656870  51.7130330
  21.2112070  22.8193720  52.3789690  25.1121510  23.6036250  67.4024250
  25.5262530  23.7581330  68.2514670  24.1772510  23.7291470  67.5650030
  25.5843680  20.9432410  69.4063400  26.1664450  20.1884730  69.3183880
  25.7605450  21.4739850  68.6294880  16.7015750  16.1029160  67.7180350
  16.6072620  15.4849910  66.9931220  16.1213140  16.8295450  67.4910260
  19.4677190  14.6602400  64.7507740  19.0194490  14.6826660  63.9053290
  18.8342390  14.2621420  65.3478040  19.8736740  23.5556730  65.3720180
  20.2924850  24.3989460  65.1996420  18.9545370  23.6928770  65.1426960
  22.2100640  21.2872910  66.7558020  22.3296850  20.6914050  67.4952860
  23.0694640  21.3242600  66.3359320  24.5488540  21.8410100  65.3320530
  24.0223760  22.3652720  64.7285670  24.8919880  22.4737490  65.9630260
  16.9474930  19.2303470  51.7770240  16.7463990  18.3670830  52.1383580
  16.7766980  19.1436830  50.8391840  17.7244160  29.8609740  66.4877910
  17.1865250  30.5855800  66.1686610  17.9778120  29.3840080  65.6975250
  18.9769410  17.8294260  68.0133840  19.5669100  17.5210110  68.7011660
  18.1589650  17.3574010  68.1693740  23.7962840  17.4460070  68.2466860
  23.1078360  16.7841610  68.1816850  24.5168860  16.9998340  68.6915320
  24.4263240  14.0411700  54.3057120  24.7065530  13.1979600  54.6616540
  23.6528970  14.2734810  54.8195870  15.7457730  16.3304090  51.7648120
  16.0483630  16.3371520  50.8567270  16.4852320  15.9801950  52.2615780
  20.5806370  31.0960950  66.7464560  20.5065070  31.9996090  67.0536930
  19.6785210  30.7772850  66.7186630  18.9642660  15.2738710  52.7504320
  18.6164660  14.5962700  52.1706770  19.1655430  14.8128220  53.5647710
  14.7687860  25.6346510  52.5977920  15.2062730  26.1776180  53.2535500
  15.2535590  24.8093460  52.6074260  11.9833660  28.4235540  60.0498180
  12.3136670  27.5556600  59.8176820  12.4124660  28.6294060  60.8803140
  16.5795580  26.7544550  57.7100150  16.2791120  26.6309520  58.6104060
  16.4733070  25.8953140  57.3015880  12.4723870  29.2906130  62.7879810
  12.0354860  29.4706930  63.6203960  13.0401550  30.0480750  62.6461530
  28.1086050  28.7923130  67.0757120  27.5088040  28.8515690  66.3321040
  28.2379950  27.8528110  67.2053970  29.3487500  26.5340950  52.4126830
  28.5180460  26.6017600  52.8834060  29.5259330  27.4245070  52.1093690
  28.8043960  23.2788430  54.9161030  29.5662870  23.8485080  55.0220720
  28.8198330  22.7115630  55.6869340  12.3048300  21.8026360  59.1468690
  11.6497140  21.5338000  58.5028390  13.1426250  21.6930840  58.6970670
  29.8103930  24.1338530  59.7602960  30.1812760  23.3505850  59.3538930
  30.4505860  24.8227630  59.5820260  26.7937690  25.5175110  65.1733280
  25.9797530  25.9472270  65.4359070  27.2011890  26.1293520  64.5602330
  28.8563130  23.5722800  52.0733550  29.1311970  24.4801680  51.9452770
  28.6673870  23.5085330  53.0095540  25.2538740  16.5967650  53.3687180
  25.6723620  16.4098630  52.5283840  24.9474800  15.7446700  53.6790110
  28.7528470  21.5091790  57.0662980  28.3772070  20.7419720  56.6344270
  28.0231590  21.8914490  57.5537910  13.3424230  22.1878930  63.6872030
  13.7097270  22.1006330  64.5668050  12.7735050  21.4245480  63.5878890
  28.1428090  20.6563310  66.7002500  27.9114180  20.4276060  65.8000450
  28.4032640  21.5762860  66.6547390  12.8940230  19.0988020  67.5930450
  11.9996280  19.0654780  67.9324160  13.4337780  19.2974810  68.3581700
  26.5816160  15.8819740  69.4782200  27.4586340  15.8903140  69.8616200
  26.5937000  15.1450580  68.8674550  11.5186380  19.0125290  55.0894020
  10.6150460  19.2755490  54.9145680  12.0027000  19.2836460  54.3093980
  28.0279430  19.7349280  60.3670220  28.5516910  19.2411930  59.7360390
  28.6138850  19.8699640  61.1117790  28.2069150  19.8189150  63.8889770
  27.2571860  19.7852690  64.0034760  28.3882160  20.7289260  63.6539540
  14.0613590  18.0690830  52.9988400  14.7705290  17.6474050  52.5135680
  13.3453530  18.1366060  52.3671750  13.7087750  14.1230160  52.0391050
  14.4315880  14.6639100  52.3572270  13.9812270  13.8493580  51.1632590
  27.5179400  18.9922630  56.3062630  28.0138520  18.7593500  57.0911510
  27.3195470  18.1534470  55.8900270  13.3979940  13.3736350  61.9413670
  14.0456130  12.8233730  61.5008830  13.8181780  13.6279500  62.7629480
  28.9466560  17.6283580  58.8400310  28.8365840  17.4739620  59.7782580
  29.7074150  17.1004520  58.5975720  27.2932280  13.5677710  65.2983310
  27.9304500  14.1811850  65.6642500  27.4407170  13.6038370  64.3532540
  29.8356830  15.4591500  52.0806450  30.7606140  15.3272680  51.8724740
  29.8132620  15.5384320  53.0342900  29.9095320  16.2302160  54.7063160
  29.1146820  16.1647280  55.2356070  30.1138600  17.1652800  54.6948510
  26.8513740  30.2693710  58.7001550  27.4472810  29.9478280  58.0235970
  27.1091890  29.7965530  59.4914820  13.1511940  13.5292020  64.6838990
  12.8026760  13.9855840  65.4497170  12.8199640  12.6349150  64.7661420
  14.7576310  26.7011620  68.8492180  14.7145940  26.3304530  69.7306640
  14.8887320  27.6389190  68.9894000  18.4582340  28.2571210  64.4501900
  18.2173700  28.5245770  63.5632420  19.3984980  28.4276940  64.5052760
  20.6636760  14.7203900  68.2058410  20.6025650  15.3125730  68.9553820
  21.6037140  14.6129860  68.0608670  23.3011320  14.3773960  67.8450700
  23.9151730  14.6953250  67.1831780  23.8460880  13.8922550  68.4646560
  29.7186500  30.2765590  65.2512540  29.2244780  30.6734460  64.5339670
  29.1099790  29.6514800  65.6449820  13.8232580  13.0568220  67.9589760
  14.3715570  12.8756270  67.1955870  13.8887890  12.2662330  68.4946070
  14.5964340  29.6473870  65.9689960  14.0024660  29.5158570  66.7080000
  14.5888180  28.8112010  65.5032060  24.0419360  12.9406100  64.1719990
  23.1679200  13.2741210  63.9692920  23.9330110  12.4679280  64.9971860
  24.9491340  15.1476970  65.5561710  24.6204700  14.3328730  65.1763440
  25.8973640  15.1046780  65.4327400  27.4025950  30.9189010  62.5299280
  26.9428920  31.6704820  62.1557300  26.7738410  30.1995480  62.4714080
  14.2276570  27.0132250  64.9198000  13.5010630  26.3937540  64.8523950
  14.2885720  27.4072860  64.0496080  17.8321670  29.2277250  61.7047410
  18.3486690  28.6164610  61.1795670  18.4819050  29.7306030  62.1958420
  20.5717170  30.1185740  62.5316390  20.8594980  29.8640040  61.6549400
  21.0840390  29.5663100  63.1221960  21.7894180  13.8575940  63.1112900
  21.0065970  14.3321440  63.3909660  21.4957110  12.9530770  63.0026080
  26.3415250  14.5599040  61.1561990  26.7823340  14.5044140  60.3083590
  26.0722840  15.4757050  61.2272170  28.2053820  14.1914280  59.1670810
  28.1442220  13.2475500  59.0201830  28.9845850  14.2994370  59.7124270
  12.5106570  30.3306640  58.1294760  12.3428610  29.6977320  58.8276650
  11.6441080  30.5366040  57.7788950  13.1334590  14.1623420  55.6326620
  13.8913950  14.2752300  55.0590650  12.6711760  14.9992620  55.5870050
  19.6748400  16.2762690  58.6228930  18.8622910  15.9019580  58.2824810
  20.1790040  15.5207770  58.9250120  24.1773380  12.9405140  59.8612000
  24.7802750  13.5125350  60.3360520  23.4366370  13.5044580  59.6385900
  27.3207980  13.3426700  55.1352280  27.5158610  14.2410150  55.4019710
  26.5337850  13.1113780  55.6285230  14.1169270  29.0239870  55.5744900
  13.5916890  29.4047900  54.8706860  14.0413850  29.6490640  56.2954610
  15.5059740  14.6887470  54.1728590  16.0352500  13.9017270  54.0436540
  16.1388060  15.3678660  54.4064120  17.6997580  14.4262610  57.2273980
  17.0700320  13.7249920  57.3944110  17.1602720  15.1866740  57.0107140
  20.6389530  31.0401840  69.8984590  21.5656840  30.8046110  69.9420550
  20.6239960  31.8673840  69.4170620  28.8734590  30.5827410  56.8958840
  29.0486780  29.8965150  56.2519760  28.1756160  31.1074460  56.5035510
  17.8253140  13.7046590  69.6626470  17.5437410  14.2080190  68.8987290
  18.2072840  12.9068340  69.2968600  16.7162240  30.9722250  54.4494150
  17.4481060  30.6881530  53.9018040  16.9755910  30.7335530  55.3393530
  15.8777030  27.0886980  54.4540480  15.2485910  27.5572080  55.0026310
  15.9924860  26.2436200  54.8886670  24.4268600  13.1200170  70.2406940
  24.3134050  13.4394780  71.1358460  25.2438340  13.5212680  69.9444220
  27.2067090  30.2671700  69.7225630  27.9992410  29.7720930  69.5151590
  27.5000240  30.9461840  70.3301240  13.8902570  18.1893360  37.1469100
  13.0019270  18.5309330  37.0448980  14.1743760  17.9893680  36.2549930
  11.8535580  20.7899010  43.0308800  12.4251690  20.0221210  43.0312440
  11.8537120  21.0887770  42.1215410  13.0960450  16.1983370  44.8177730
  12.9163290  15.3009120  45.0980490  12.6940530  16.7455240  45.4924680
  16.0663960  16.7724860  38.1807480  16.1730710  17.6728590  38.4876240
  15.1556320  16.7242830  37.8902130  30.0082620  17.9116420  46.2162010
  29.3034790  18.2998130  45.6977120  30.2740540  18.6066710  46.8182940
  16.1907790  14.3809790  46.7796080  16.1926230  14.8982180  45.9741980
  15.3612100  13.9039970  46.7566010  11.9462080  25.1785630  35.6525610
  11.5690060  25.6672730  34.9210510  12.2035150  25.8510910  36.2832140
  19.5551010  13.5802020  41.1111120  19.8625990  13.0248910  40.3946620
  18.6251710  13.7146480  40.9284110  17.1088540  25.5964840  49.4437980
  16.2117070  25.8204810  49.6911380  17.1341410  25.7199780  48.4949380
  24.1493760  22.4457960  35.3579240  24.5887040  21.6080390  35.2117060
  24.8622180  23.0787360  35.4443380  15.9359760  22.4678160  48.0195350
  15.7967530  23.3400960  48.3882750  15.0541120  22.1250970  47.8743290
  17.7340110  28.4099860  50.2280500  17.7055540  28.8142810  49.3608930
  17.5705080  27.4810220  50.0652100  27.7310900  13.7000770  33.6720280
  27.4183560  13.7927600  34.5719350  28.4923370  14.2781800  33.6217710
  11.8878410  24.2375710  43.9366260  11.9658830  24.3724480  42.9921980
  12.5020090  23.5291600  44.1294380  28.9412190  18.4372270  49.6494420
  28.3256460  18.9451940  49.1209880  28.6208610  17.5370600  49.5920360
  11.9437930  25.2789880  46.4760720  12.1068970  24.8095240  45.6580090
  12.4090380  24.7713440  47.1409560  21.0026510  17.2764160  47.1156610
  20.5405880  17.4847180  47.9276550  20.6004620  16.4623510  46.8127280
  26.0031020  18.4973110  48.2453270  25.1524610  18.1978860  48.5662340
  25.8432810  18.7415120  47.3337090  23.0980730  19.9974860  50.3452060
  23.4234140  19.1638610  50.0054290  23.8861060  20.5203380  50.4930390
  18.9470130  20.4314790  49.9062810  18.8513730  19.4909520  49.7563210
  19.7902110  20.6529860  49.5110880  14.0780670  16.8428460  48.0596590
  13.6844060  17.6903670  48.2669370  13.3899070  16.2054830  48.2505230
  20.6525720  16.9263430  51.1293330  19.9624040  16.7335630  51.7639420
  21.3958020  17.2098070  51.6617630  11.3797720  14.7656920  42.0926670
  11.0910770  15.3359780  42.8051650  12.1243480  14.2861370  42.4557900
  11.5667950  18.7077040  33.3029390  11.4842620  19.6507800  33.4444380
  11.2151010  18.5651950  32.4241740  23.3914600  16.2195550  43.3770190
  23.4087340  16.6704200  44.2212040  23.1430180  15.3201190  43.5903630
  26.8185350  13.6327730  49.2156570  27.1431120  12.9017390  49.7414550
  26.8541860  13.3141370  48.3137560  13.5176910  24.6541310  48.6356530
  13.1331700  24.0134980  49.2339490  13.8289100  25.3577430  49.2051260
  12.5314540  16.2461540  40.2458620  12.2461460  15.8817210  41.0837240
  12.4693400  15.5142000  39.6321760  17.4573420  20.5426490  46.4349360
  17.1530490  21.4218470  46.6599720  18.4119880  20.6026280  46.4706800
  13.5137150  21.3829230  47.5820720  13.1552090  22.0483080  48.1694060
  13.2191710  20.5512780  47.9533340  16.7150270  21.8413470  50.4660270
  16.4150410  21.9870650  49.5688090  17.4861510  21.2818760  50.3733660
  12.0245200  21.3820490  34.2055320  12.8940050  21.6645290  34.4891240
  11.5335520  22.1956360  34.0904130  15.0891790  13.1131350  38.7986120
  14.9606420  13.1049250  39.7471040  14.2653810  13.4514440  38.4477130
  12.3916450  30.5947870  34.7716950  12.7514090  31.1937210  34.1174220
  12.2508790  31.1407760  35.5451980  12.0885720  14.8722470  48.2592820
  11.3744240  15.0719390  48.8645430  12.5080760  14.0962040  48.6307620
  12.3758310  28.8602730  49.2459350  12.4849430  27.9197470  49.1054740
  11.7238870  29.1257480  48.5973080  23.5824500  17.3644780  46.0094270
  23.9505320  16.5439990  46.3373840  22.7222700  17.4246670  46.4249920
  22.9485990  15.3238330  39.6735500  22.8253770  15.3424460  38.7245010
  23.8970550  15.3717270  39.7933900  27.7493350  16.2352330  47.0760630
  27.2466950  16.9757730  47.4154440  28.5650010  16.6236330  46.7597420
  15.5158470  30.7425570  41.8693380  16.2520950  30.1941030  42.1401950
  15.8999390  31.6081580  41.7299370  12.4003950  26.8099140  37.7434890
  11.4743730  27.0520280  37.7340300  12.8660380  27.6373400  37.6219640
  14.5216750  29.9271640  51.0578960  15.3229480  30.2483690  51.4714360
  14.0068570  29.5667220  51.7798870  12.2414560  22.4145100  50.0015010
  12.7453580  21.8352380  50.5731240  11.5021980  22.6985330  50.5391380
  19.2952500  23.8216090  49.5350530  18.5298170  24.3901090  49.4505200
  19.4768460  23.5292300  48.6418760  14.2737640  20.5574690  50.8965080
  14.3142980  20.2588560  51.8050310  15.1283140  20.9582300  50.7372600
  16.2143450  19.1366790  48.8639570  15.6839910  18.6457740  48.2362910
  16.8831520  19.5650990  48.3297500  20.5643670  22.1807850  33.3045690
  21.0849330  21.4656870  32.9386840  21.2112070  22.8193720  33.6046200
  25.5843680  20.9432410  50.6319910  26.1664450  20.1884730  50.5440390
  25.7605450  21.4739850  49.8551390  16.7015750  16.1029160  48.9436860
  16.6072620  15.4849910  48.2187730  16.1213140  16.8295450  48.7166770
  19.4677190  14.6602400  45.9764250  19.0194490  14.6826660  45.1309800
  18.8342390  14.2621420  46.5734550  18.9769410  17.8294260  49.2390350
  19.5669100  17.5210110  49.9268170  18.1589650  17.3574010  49.3950250
  23.7962840  17.4460070  49.4723370  23.1078360  16.7841610  49.4073360
  24.5168860  16.9998340  49.9171830  24.4263240  14.0411700  35.5313630
  24.7065530  13.1979600  35.8873050  23.6528970  14.2734810  36.0452380
  15.7457730  16.3304090  32.9904630  16.0483630  16.3371520  32.0823780
  16.4852320  15.9801950  33.4872290  11.9833660  28.4235540  41.2754690
  12.3136670  27.5556600  41.0433330  12.4124660  28.6294060  42.1059650
  12.4723870  29.2906130  44.0136320  12.0354860  29.4706930  44.8460470
  13.0401550  30.0480750  43.8718040  12.3048300  21.8026360  40.3725200
  11.6497140  21.5338000  39.7284900  13.1426250  21.6930840  39.9227180
  13.3424230  22.1878930  44.9128540  13.7097270  22.1006330  45.7924560
  12.7735050  21.4245480  44.8135400  28.1428090  20.6563310  47.9259010
  27.9114180  20.4276060  47.0256960  28.4032640  21.5762860  47.8803900
  12.8940230  19.0988020  48.8186960  11.9996280  19.0654780  49.1580670
  13.4337780  19.2974810  49.5838210  26.5816160  15.8819740  50.7038710
  27.4586340  15.8903140  51.0872710  26.5937000  15.1450580  50.0931060
  11.5186380  19.0125290  36.3150530  10.6150460  19.2755490  36.1402190
  12.0027000  19.2836460  35.5350490  14.0613590  18.0690830  34.2244910
  14.7705290  17.6474050  33.7392190  13.3453530  18.1366060  33.5928260
  13.7087750  14.1230160  33.2647560  14.4315880  14.6639100  33.5828780
  13.9812270  13.8493580  32.3889100  13.3979940  13.3736350  43.1670180
  14.0456130  12.8233730  42.7265340  13.8181780  13.6279500  43.9885990
  27.2932280  13.5677710  46.5239820  27.9304500  14.1811850  46.8899010
  27.4407170  13.6038370  45.5789050  13.1511940  13.5292020  45.9095500
  12.8026760  13.9855840  46.6753680  12.8199640  12.6349150  45.9917930
  14.7576310  26.7011620  50.0748690  14.7145940  26.3304530  50.9563150
  14.8887320  27.6389190  50.2150510  20.6636760  14.7203900  49.4314920
  20.6025650  15.3125730  50.1810330  21.6037140  14.6129860  49.2865180
  23.3011320  14.3773960  49.0707210  23.9151730  14.6953250  48.4088290
  23.8460880  13.8922550  49.6903070  13.8232580  13.0568220  49.1846270
  14.3715570  12.8756270  48.4212380  13.8887890  12.2662330  49.7202580
  14.5964340  29.6473870  47.1946470  14.0024660  29.5158570  47.9336510
  14.5888180  28.8112010  46.7288570  24.0419360  12.9406100  45.3976500
  23.1679200  13.2741210  45.1949430  23.9330110  12.4679280  46.2228370
  24.9491340  15.1476970  46.7818220  24.6204700  14.3328730  46.4019950
  25.8973640  15.1046780  46.6583910  14.2276570  27.0132250  46.1454510
  13.5010630  26.3937540  46.0780460  14.2885720  27.4072860  45.2752590
  21.7894180  13.8575940  44.3369410  21.0065970  14.3321440  44.6166170
  21.4957110  12.9530770  44.2282590  26.3415250  14.5599040  42.3818500
  26.7823340  14.5044140  41.5340100  26.0722840  15.4757050  42.4528680
  28.2053820  14.1914280  40.3927320  28.1442220  13.2475500  40.2458340
  28.9845850  14.2994370  40.9380780  12.5106570  30.3306640  39.3551270
  12.3428610  29.6977320  40.0533160  11.6441080  30.5366040  39.0045460
  13.1334590  14.1623420  36.8583130  13.8913950  14.2752300  36.2847160
  12.6711760  14.9992620  36.8126560  24.1773380  12.9405140  41.0868510
  24.7802750  13.5125350  41.5617030  23.4366370  13.5044580  40.8642410
  15.5059740  14.6887470  35.3985100  16.0352500  13.9017270  35.2693050
  16.1388060  15.3678660  35.6320630  17.6997580  14.4262610  38.4530490
  17.0700320  13.7249920  38.6200620  17.1602720  15.1866740  38.2363650
  17.8253140  13.7046590  50.8882980  17.5437410  14.2080190  50.1243800
  18.2072840  12.9068340  50.5225110  24.4268600  13.1200170  51.4663450
  24.3134050  13.4394780  52.3614970  25.2438340  13.5212680  51.1700730
  23.3326750  21.1392640  21.8298190  23.2520800  20.2247250  21.5589900
  22.9191170  21.6359710  21.1237900  21.4644790  22.9171660  23.7107460
  20.6886890  22.4372100  24.0006030  22.1157720  22.2377310  23.5363620
  15.4810620  23.2291470  24.5883220  14.6495500  22.9740180  24.9879730
  16.0891600  23.3002240  25.3241140  15.4611880  27.2631560  24.7841240
  15.7639920  26.3729300  24.6051460  16.2055470  27.8201780  24.5563490
  13.8902570  18.1893360  18.3725610  13.0019270  18.5309330  18.2705490
  14.1743760  17.9893680  17.4806440  11.8535580  20.7899010  24.2565310
  12.4251690  20.0221210  24.2568950  11.8537120  21.0887770  23.3471920
  20.9053780  25.5928850  23.7177620  20.8362060  24.6518790  23.5566750
  21.6673640  25.6830260  24.2900190  13.0960450  16.1983370  26.0434240
  12.9163290  15.3009120  26.3237000  12.6940530  16.7455240  26.7181190
  21.9358950  18.3999230  23.9446550  22.3123770  17.5271110  23.8320220
  21.8378460  18.7357930  23.0536990  16.0663960  16.7724860  19.4063990
  16.1730710  17.6728590  19.7132750  15.1556320  16.7242830  19.1158640
  25.7183070  15.8949670  20.8774890  26.5392690  15.4046240  20.9200370
  25.7517150  16.4847330  21.6306730  13.7147120  18.6943870  24.6516580
  14.3957230  18.9582240  25.2703980  13.3995170  17.8544740  24.9854590
  17.9071690  19.7411230  23.7389170  18.4149910  20.2392200  24.3794190
  18.4384930  18.9646430  23.5628530  30.0082620  17.9116420  27.4418520
  29.3034790  18.2998130  26.9233630  30.2740540  18.6066710  28.0439450
  16.1907790  14.3809790  28.0052590  16.1926230  14.8982180  27.1998490
  15.3612100  13.9039970  27.9822520  22.5778880  24.4929100  19.5042490
  21.9596150  24.9578550  18.9405210  23.0902130  25.1856580  19.9212000
  17.4410640  24.0204970  26.1826090  17.1080020  24.6473890  26.8247160
  17.6177320  24.5466850  25.4027760  25.9544550  17.8350050  23.6502430
  25.2500120  18.1234940  24.2305540  26.3156710  18.6450160  23.2901990
  15.8723120  16.0919750  26.0123040  16.2139930  16.9361800  25.7176910
  14.9338930  16.2403490  26.1288380  16.6529740  25.9885770  27.9975270
  17.2703740  26.6636850  27.7159720  15.7922860  26.3973750  27.9062770
  11.9462080  25.1785630  16.8782120  11.5690060  25.6672730  16.1467020
  12.2035150  25.8510910  17.5088650  29.0231470  17.2804840  24.0411640
  28.0756380  17.3143820  24.1727070  29.3481460  18.0943790  24.4261000
  19.5551010  13.5802020  22.3367630  19.8625990  13.0248910  21.6203130
  18.6251710  13.7146480  22.1540620  24.5051510  24.1999150  25.9557700
  24.9220300  23.9859260  25.1211160  25.2291330  24.4571940  26.5266320
  21.9431770  21.6450850  19.0727750  21.0161050  21.5788230  19.3016220
  22.0956590  22.5830980  18.9582990  21.9300850  17.9167850  16.0694910
  20.9904520  18.0781810  16.1547370  22.2484110  18.6353530  15.5230900
  28.4513610  22.5986370  26.0473940  27.6232240  22.6679460  25.5724070
  29.0464090  23.1840680  25.5789770  25.9729060  23.2071150  19.5763000
  25.3541480  22.8690700  18.9289300  25.9553510  22.5630910  20.2842190
  25.4155620  19.3855690  26.9928810  25.0026800  20.2109400  27.2468800
  24.6831570  18.8000730  26.8005170  17.5488410  22.1715590  21.8547480
  17.1445410  21.4592840  21.3593380  17.6351530  21.8268830  22.7435520
  18.0170110  25.8583150  24.0186690  17.7198400  25.2528620  23.3394470
  18.9669930  25.8960460  23.9076050  16.2617030  18.9458800  25.6346520
  16.8131620  19.0554140  24.8599770  16.7760540  19.3196400  26.3501750
  26.1055720  29.4315020  27.6809790  25.6286280  30.2387210  27.4882400
  25.4217510  28.7793350  27.8336000  17.1088540  25.5964840  30.6694490
  16.2117070  25.8204810  30.9167890  17.1341410  25.7199780  29.7205890
  24.1493760  22.4457960  16.5835750  24.5887040  21.6080390  16.4373570
  24.8622180  23.0787360  16.6699890  15.9359760  22.4678160  29.2451860
  15.7967530  23.3400960  29.6139260  15.0541120  22.1250970  29.0999800
  17.7340110  28.4099860  31.4537010  17.7055540  28.8142810  30.5865440
  17.5705080  27.4810220  31.2908610  27.7310900  13.7000770  14.8976790
  27.4183560  13.7927600  15.7975860  28.4923370  14.2781800  14.8474220
  14.2493040  21.0660570  19.3554130  14.1290640  21.7922660  18.7435400
  13.9393930  20.2963480  18.8782040  29.6854930  29.1926960  32.7501180
  30.1614650  29.6709850  33.4290260  30.3062090  29.1244450  32.0246680
  11.8878410  24.2375710  25.1622770  11.9658830  24.3724480  24.2178490
  12.5020090  23.5291600  25.3550890  13.1326040  25.9375900  21.5728950
  12.7254120  26.0790490  20.7182550  14.0239050  25.6536060  21.3700160
  17.4047700  30.1521680  19.6851620  17.2290180  29.2357220  19.4719420
  16.5503440  30.5108970  19.9249420  24.6285450  27.8810710  16.4678000
  23.9350610  27.8788000  15.8080280  25.3708310  27.4570030  16.0372170
  11.9437930  25.2789880  27.7017230  12.1068970  24.8095240  26.8836600
  12.4090380  24.7713440  28.3666070  16.7156700  14.4095640  22.7377800
  16.2724850  15.1905180  22.4062320  17.2741690  14.7325530  23.4448740
  21.0026510  17.2764160  28.3413120  20.5405880  17.4847180  29.1533060
  20.6004620  16.4623510  28.0383790  26.0031020  18.4973110  29.4709780
  25.1524610  18.1978860  29.7918850  25.8432810  18.7415120  28.5593600
  23.0980730  19.9974860  31.5708570  23.4234140  19.1638610  31.2310800
  23.8861060  20.5203380  31.7186900  19.8315520  14.0306340  17.6183630
  19.2069700  14.0266210  18.3436940  19.7445640  13.1637300  17.2219600
  18.7532600  14.9542970  24.5967400  19.0504930  15.8605800  24.5159420
  19.3018160  14.4661750  23.9826970  16.5070920  19.5329210  20.4659050
  16.2811840  19.3166380  21.3705670  15.7263450  19.9657670  20.1205020
  23.7368680  19.5392580  19.0649700  23.1377570  20.2628380  18.8813320
  24.2848290  19.4769360  18.2826150  18.9470130  20.4314790  31.1319320
  18.8513730  19.4909520  30.9819720  19.7902110  20.6529860  30.7367390
  22.3433550  18.1756120  21.0952980  22.7363120  18.4928320  20.2821670
  22.7050400  17.2968000  21.2097500  14.0780670  16.8428460  29.2853100
  13.6844060  17.6903670  29.4925880  13.3899070  16.2054830  29.4761740
  11.3797720  14.7656920  23.3183180  11.0910770  15.3359780  24.0308160
  12.1243480  14.2861370  23.6814410  11.5667950  18.7077040  14.5285900
  11.4842620  19.6507800  14.6700890  11.2151010  18.5651950  13.6498250
  22.9288690  20.7661870  25.1903760  22.1969810  21.2748680  25.5393860
  22.5313030  19.9491850  24.8892540  19.3666080  17.4416070  23.5956250
  19.3702140  17.0006020  22.7460790  20.2617200  17.7633400  23.7028070
  15.2168460  17.3242560  22.5550460  14.8768510  17.8017790  23.3117510
  14.4545780  16.8707680  22.1951560  19.4286230  18.4428150  16.5863010
  19.5499050  18.4014630  17.5348830  19.0434740  19.3052300  16.4309740
  23.3914600  16.2195550  24.6026700  23.4087340  16.6704200  25.4468550
  23.1430180  15.3201190  24.8160140  18.4407730  20.7529290  15.9846310
  17.8724630  20.3047540  15.3582220  19.1496730  21.1122070  15.4511460
  26.8185350  13.6327730  30.4413080  27.1431120  12.9017390  30.9671060
  26.8541860  13.3141370  29.5394070  13.5176910  24.6541310  29.8613040
  13.1331700  24.0134980  30.4596000  13.8289100  25.3577430  30.4307770
  19.6674050  21.5017850  25.3421660  20.0344180  21.0276420  26.0883000
  19.4779110  22.3759420  25.6830000  12.5314540  16.2461540  21.4715130
  12.2461460  15.8817210  22.3093750  12.4693400  15.5142000  20.8578270
  17.4573420  20.5426490  27.6605870  17.1530490  21.4218470  27.8856230
  18.4119880  20.6026280  27.6963310  15.9855210  24.7487480  18.2572720
  15.2117470  24.2085100  18.0971440  16.7149840  24.2294090  17.9190480
  22.2053130  15.1390800  18.1928500  21.3917740  14.6403970  18.1173810
  22.0115080  15.9789050  17.7764850  22.1261990  23.8161900  29.9368110
  22.0599300  22.8957570  29.6825700  21.4967130  23.9137340  30.6512750
  24.9201520  19.5110450  16.4890660  25.8081140  19.8227680  16.3142000
  24.8906610  18.6382700  16.0971240  16.0292610  24.4167860  21.8951530
  16.5471280  23.6136120  21.8408420  15.5776630  24.3547000  22.7368360
  20.9162110  25.6834140  17.1678830  21.2577810  26.4276370  16.6722150
  20.0874820  25.9965260  17.5303660  13.5137150  21.3829230  28.8077230
  13.1552090  22.0483080  29.3950570  13.2191710  20.5512780  29.1789850
  16.7150270  21.8413470  31.6916780  16.4150410  21.9870650  30.7944600
  17.4861510  21.2818760  31.5990170  22.0578720  26.6382470  29.6871910
  22.0723260  25.7063430  29.4690820  21.3503820  26.7242230  30.3261680
  27.1915790  20.8222290  15.9570520  27.1079510  21.2536510  15.1066960
  27.9109980  21.2820640  16.3897340  19.8852800  25.7647670  19.9394750
  20.5723930  26.3116880  20.3202340  19.0985220  26.3088400  19.9744360
  12.0245200  21.3820490  15.4311830  12.8940050  21.6645290  15.7147750
  11.5335520  22.1956360  15.3160640  19.1880010  22.7693700  19.5520110
  19.6442790  23.5798950  19.7780300  18.8368220  22.4516840  20.3838600
  21.4912620  28.2800040  26.7812410  22.1354840  28.4859420  27.4585830
  21.8542060  27.5188440  26.3283260  15.0891790  13.1131350  20.0242630
  14.9606420  13.1049250  20.9727550  14.2653810  13.4514440  19.6733640
  26.6100420  26.5681010  15.2229000  26.3838000  25.8511450  15.8153640
  26.2196620  26.3193450  14.3850750  24.5382320  27.0827290  28.7025920
  24.8738560  27.6693980  29.3803840  23.6182660  26.9520000  28.9323710
  12.3916450  30.5947870  15.9973460  12.7514090  31.1937210  15.3430730
  12.2508790  31.1407760  16.7708490  12.0885720  14.8722470  29.4849330
  11.3744240  15.0719390  30.0901940  12.5080760  14.0962040  29.8564130
  26.1916670  24.4852950  16.8843160  25.9038370  24.9465640  17.6721040
  26.9868840  24.0250720  17.1527380  12.3758310  28.8602730  30.4715860
  12.4849430  27.9197470  30.3311250  11.7238870  29.1257480  29.8229590
  20.3670900  27.1318620  31.8713980  20.0467770  26.4127860  32.4159670
  19.6929260  27.8073690  31.9450040  18.4085070  27.9779070  16.8147130
  18.3995170  28.7108760  16.1991640  17.4883430  27.7310650  16.9074090
  14.0091710  23.1993960  17.5593890  13.4019660  23.9392860  17.5689190
  14.4841060  23.2893320  16.7332090  23.5824500  17.3644780  27.2350780
  23.9505320  16.5439990  27.5630350  22.7222700  17.4246670  27.6506430
  26.9486530  16.3201720  18.0438340  26.3199690  16.4247390  17.3296570
  26.4538450  16.5398500  18.8332220  21.3944670  28.0407310  15.4772320
  21.4956650  27.8371300  14.5474300  20.4946410  27.7865590  15.6820100
  18.9170560  18.5987670  19.4596220  18.2086710  19.0674010  19.9009830
  19.2015040  17.9409680  20.0941410  20.5426490  20.0184370  27.4588750
  21.0411740  20.4930190  28.1240600  20.6849440  19.0947890  27.6658780
  22.9485990  15.3238330  20.8992010  22.8253770  15.3424460  19.9501520
  23.8970550  15.3717270  21.0190410  17.1205580  16.9072750  16.8346930
  17.9696110  17.3442900  16.7687120  16.7536850  17.2193010  17.6618990
  27.7493350  16.2352330  28.3017140  27.2466950  16.9757730  28.6410950
  28.5650010  16.6236330  27.9853930  26.0415360  21.4785510  21.7478500
  25.1005500  21.4935740  21.9226190  26.3559430  20.6921470  22.1938800
  16.0197000  23.1605110  15.3082460  16.7860270  23.0486470  15.8707890
  16.0971690  22.4643080  14.6559230  14.7143760  20.5930180  15.9915350
  14.7947350  19.6457690  16.1032750  15.6063510  20.9237060  16.0976010
  15.5158470  30.7425570  23.0949890  16.2520950  30.1941030  23.3658460
  15.8999390  31.6081580  22.9555880  12.4003950  26.8099140  18.9691400
  11.4743730  27.0520280  18.9596810  12.8660380  27.6373400  18.8476150
  18.6260780  29.9155880  14.9175460  19.4189390  30.2044710  14.4657250
  18.1065130  29.4848050  14.2387940  23.3581380  26.0351510  32.2310880
  22.7519540  26.0583110  31.4906630  23.0535490  25.3034550  32.7678130
  27.6790950  29.1426010  16.3412200  27.3932460  28.7291150  15.5266380
  27.4810500  30.0713720  16.2212720  12.2414560  22.4145100  31.2271520
  12.7453580  21.8352380  31.7987750  11.5021980  22.6985330  31.7647890
  19.1438180  25.1359290  14.7817810  19.0388820  24.5211640  15.5079190
  18.9762400  24.6125180  13.9980820  19.2952500  23.8216090  30.7607040
  18.5298170  24.3901090  30.6761710  19.4768460  23.5292300  29.8675270
  22.3840910  24.1979320  15.3859800  21.8351010  24.6448620  16.0302540
  23.0060170  23.6928570  15.9097470  26.4375850  25.5521420  31.3182060
  27.1785320  25.8897180  30.8149520  25.6748530  25.7213480  30.7651830
  14.2737640  20.5574690  32.1221590  14.3142980  20.2588560  33.0306820
  15.1283140  20.9582300  31.9629110  18.0516030  23.1570240  17.2825100
  18.4732450  22.9910110  18.1256490  18.1766870  22.3470470  16.7880240
  16.2143450  19.1366790  30.0896080  15.6839910  18.6457740  29.4619420
  16.8831520  19.5650990  29.5554010  20.5643670  22.1807850  14.5302200
  21.0849330  21.4656870  14.1643350  21.2112070  22.8193720  14.8302710
  25.1121510  23.6036250  29.8537270  25.5262530  23.7581330  30.7027690
  24.1772510  23.7291470  30.0163050  25.5843680  20.9432410  31.8576420
  26.1664450  20.1884730  31.7696900  25.7605450  21.4739850  31.0807900
  16.7015750  16.1029160  30.1693370  16.6072620  15.4849910  29.4444240
  16.1213140  16.8295450  29.9423280  19.4677190  14.6602400  27.2020760
  19.0194490  14.6826660  26.3566310  18.8342390  14.2621420  27.7991060
  19.8736740  23.5556730  27.8233200  20.2924850  24.3989460  27.6509440
  18.9545370  23.6928770  27.5939980  22.2100640  21.2872910  29.2071040
  22.3296850  20.6914050  29.9465880  23.0694640  21.3242600  28.7872340
  24.5488540  21.8410100  27.7833550  24.0223760  22.3652720  27.1798690
  24.8919880  22.4737490  28.4143280  16.9474930  19.2303470  14.2283260
  16.7463990  18.3670830  14.5896600  16.7766980  19.1436830  13.2904860
  18.9769410  17.8294260  30.4646860  19.5669100  17.5210110  31.1524680
  18.1589650  17.3574010  30.6206760  23.7962840  17.4460070  30.6979880
  23.1078360  16.7841610  30.6329870  24.5168860  16.9998340  31.1428340
  24.4263240  14.0411700  16.7570140  24.7065530  13.1979600  17.1129560
  23.6528970  14.2734810  17.2708890  15.7457730  16.3304090  14.2161140
  16.0483630  16.3371520  13.3080290  16.4852320  15.9801950  14.7128800
  18.9642660  15.2738710  15.2017340  18.6164660  14.5962700  14.6219790
  19.1655430  14.8128220  16.0160730  21.1291700  30.2619460  16.8203940
  22.0242490  30.6004430  16.8422700  21.1609330  29.5398870  16.1928220
  14.7687860  25.6346510  15.0490940  15.2062730  26.1776180  15.7048520
  15.2535590  24.8093460  15.0587280  11.9833660  28.4235540  22.5011200
  12.3136670  27.5556600  22.2689840  12.4124660  28.6294060  23.3316160
  16.5795580  26.7544550  20.1613170  16.2791120  26.6309520  21.0617080
  16.4733070  25.8953140  19.7528900  12.4723870  29.2906130  25.2392830
  12.0354860  29.4706930  26.0716980  13.0401550  30.0480750  25.0974550
  28.1086050  28.7923130  29.5270140  27.5088040  28.8515690  28.7834060
  28.2379950  27.8528110  29.6566990  29.3487500  26.5340950  14.8639850
  28.5180460  26.6017600  15.3347080  29.5259330  27.4245070  14.5606710
  28.8043960  23.2788430  17.3674050  29.5662870  23.8485080  17.4733740
  28.8198330  22.7115630  18.1382360  12.3048300  21.8026360  21.5981710
  11.6497140  21.5338000  20.9541410  13.1426250  21.6930840  21.1483690
  29.8103930  24.1338530  22.2115980  30.1812760  23.3505850  21.8051950
  30.4505860  24.8227630  22.0333280  26.7937690  25.5175110  27.6246300
  25.9797530  25.9472270  27.8872090  27.2011890  26.1293520  27.0115350
  28.8563130  23.5722800  14.5246570  29.1311970  24.4801680  14.3965790
  28.6673870  23.5085330  15.4608560  25.2538740  16.5967650  15.8200200
  25.6723620  16.4098630  14.9796860  24.9474800  15.7446700  16.1303130
  28.7528470  21.5091790  19.5176000  28.3772070  20.7419720  19.0857290
  28.0231590  21.8914490  20.0050930  13.3424230  22.1878930  26.1385050
  13.7097270  22.1006330  27.0181070  12.7735050  21.4245480  26.0391910
  12.8940230  19.0988020  30.0443470  11.9996280  19.0654780  30.3837180
  13.4337780  19.2974810  30.8094720  26.5816160  15.8819740  31.9295220
  27.4586340  15.8903140  32.3129220  26.5937000  15.1450580  31.3187570
  11.5186380  19.0125290  17.5407040  10.6150460  19.2755490  17.3658700
  12.0027000  19.2836460  16.7607000  28.0279430  19.7349280  22.8183240
  28.5516910  19.2411930  22.1873410  28.6138850  19.8699640  23.5630810
  28.2069150  19.8189150  26.3402790  27.2571860  19.7852690  26.4547780
  28.3882160  20.7289260  26.1052560  14.0613590  18.0690830  15.4501420
  14.7705290  17.6474050  14.9648700  13.3453530  18.1366060  14.8184770
  13.7087750  14.1230160  14.4904070  14.4315880  14.6639100  14.8085290
  13.9812270  13.8493580  13.6145610  27.5179400  18.9922630  18.7575650
  28.0138520  18.7593500  19.5424530  27.3195470  18.1534470  18.3413290
  13.3979940  13.3736350  24.3926690  14.0456130  12.8233730  23.9521850
  13.8181780  13.6279500  25.2142500  28.9466560  17.6283580  21.2913330
  28.8365840  17.4739620  22.2295600  29.7074150  17.1004520  21.0488740
  27.2932280  13.5677710  27.7496330  27.9304500  14.1811850  28.1155520
  27.4407170  13.6038370  26.8045560  29.8356830  15.4591500  14.5319470
  30.7606140  15.3272680  14.3237760  29.8132620  15.5384320  15.4855920
  29.9095320  16.2302160  17.1576180  29.1146820  16.1647280  17.6869090
  30.1138600  17.1652800  17.1461530  13.1511940  13.5292020  27.1352010
  12.8026760  13.9855840  27.9010190  12.8199640  12.6349150  27.2174440
  14.7576310  26.7011620  31.3005200  14.7145940  26.3304530  32.1819660
  14.8887320  27.6389190  31.4407020  18.4582340  28.2571210  26.9014920
  18.2173700  28.5245770  26.0145440  19.3984980  28.4276940  26.9565780
  20.6636760  14.7203900  30.6571430  20.6025650  15.3125730  31.4066840
  21.6037140  14.6129860  30.5121690  23.3011320  14.3773960  30.2963720
  23.9151730  14.6953250  29.6344800  23.8460880  13.8922550  30.9159580
  13.8232580  13.0568220  30.4102780  14.3715570  12.8756270  29.6468890
  13.8887890  12.2662330  30.9459090  14.5964340  29.6473870  28.4202980
  14.0024660  29.5158570  29.1593020  14.5888180  28.8112010  27.9545080
  24.0419360  12.9406100  26.6233010  23.1679200  13.2741210  26.4205940
  23.9330110  12.4679280  27.4484880  24.9491340  15.1476970  28.0074730
  24.6204700  14.3328730  27.6276460  25.8973640  15.1046780  27.8840420
  14.2276570  27.0132250  27.3711020  13.5010630  26.3937540  27.3036970
  14.2885720  27.4072860  26.5009100  17.8321670  29.2277250  24.1560430
  18.3486690  28.6164610  23.6308690  18.4819050  29.7306030  24.6471440
  20.5717170  30.1185740  24.9829410  20.8594980  29.8640040  24.1062420
  21.0840390  29.5663100  25.5734980  21.7894180  13.8575940  25.5625920
  21.0065970  14.3321440  25.8422680  21.4957110  12.9530770  25.4539100
  26.3415250  14.5599040  23.6075010  26.7823340  14.5044140  22.7596610
  26.0722840  15.4757050  23.6785190  28.2053820  14.1914280  21.6183830
  28.1442220  13.2475500  21.4714850  28.9845850  14.2994370  22.1637290
  12.5106570  30.3306640  20.5807780  12.3428610  29.6977320  21.2789670
  11.6441080  30.5366040  20.2301970  13.1334590  14.1623420  18.0839640
  13.8913950  14.2752300  17.5103670  12.6711760  14.9992620  18.0383070
  19.6748400  16.2762690  21.0741950  18.8622910  15.9019580  20.7337830
  20.1790040  15.5207770  21.3763140  24.1773380  12.9405140  22.3125020
  24.7802750  13.5125350  22.7873540  23.4366370  13.5044580  22.0898920
  27.3207980  13.3426700  17.5865300  27.5158610  14.2410150  17.8532730
  26.5337850  13.1113780  18.0798250  14.1169270  29.0239870  18.0257920
  13.5916890  29.4047900  17.3219880  14.0413850  29.6490640  18.7467630
  15.5059740  14.6887470  16.6241610  16.0352500  13.9017270  16.4949560
  16.1388060  15.3678660  16.8577140  17.6997580  14.4262610  19.6787000
  17.0700320  13.7249920  19.8457130  17.1602720  15.1866740  19.4620160
  17.8253140  13.7046590  32.1139490  17.5437410  14.2080190  31.3500310
  18.2072840  12.9068340  31.7481620  16.7162240  30.9722250  16.9007170
  17.4481060  30.6881530  16.3531060  16.9755910  30.7335530  17.7906550
  15.8777030  27.0886980  16.9053500  15.2485910  27.5572080  17.4539330
  15.9924860  26.2436200  17.3399690  24.4268600  13.1200170  32.6919960
  24.3134050  13.4394780  33.5871480  25.2438340  13.5212680  32.3957240
  27.2067090  30.2671700  32.1738650  27.9992410  29.7720930  31.9664610
  27.5000240  30.9461840  32.7814260  23.3326750  21.1392640   3.0554700
  23.2520800  20.2247250   2.7846410  22.9191170  21.6359710   2.3494410
  21.4644790  22.9171660   4.9363970  20.6886890  22.4372100   5.2262540
  22.1157720  22.2377310   4.7620130  15.4810620  23.2291470   5.8139730
  14.6495500  22.9740180   6.2136240  16.0891600  23.3002240   6.5497650
  25.4852220  27.3231850   3.7163100  25.0233750  26.5519090   4.0450270
  26.2977770  27.3497920   4.2215550  15.4611880  27.2631560   6.0097750
  15.7639920  26.3729300   5.8307970  16.2055470  27.8201780   5.7820000
  11.8535580  20.7899010   5.4821820  12.4251690  20.0221210   5.4825460
  11.8537120  21.0887770   4.5728430  21.7115530  29.6089860   3.3367090
  21.0926970  30.0647360   2.7661530  22.5667310  29.7641320   2.9356790
  20.9053780  25.5928850   4.9434130  20.8362060  24.6518790   4.7823260
  21.6673640  25.6830260   5.5156700  13.0960450  16.1983370   7.2690750
  12.9163290  15.3009120   7.5493510  12.6940530  16.7455240   7.9437700
  21.9358950  18.3999230   5.1703060  22.3123770  17.5271110   5.0576730
  21.8378460  18.7357930   4.2793500  25.7183070  15.8949670   2.1031400
  26.5392690  15.4046240   2.1456880  25.7517150  16.4847330   2.8563240
  13.7147120  18.6943870   5.8773090  14.3957230  18.9582240   6.4960490
  13.3995170  17.8544740   6.2111100  17.9071690  19.7411230   4.9645680
  18.4149910  20.2392200   5.6050700  18.4384930  18.9646430   4.7885040
  30.0082620  17.9116420   8.6675030  29.3034790  18.2998130   8.1490140
  30.2740540  18.6066710   9.2695960  16.1907790  14.3809790   9.2309100
  16.1926230  14.8982180   8.4255000  15.3612100  13.9039970   9.2079030
  17.4410640  24.0204970   7.4082600  17.1080020  24.6473890   8.0503670
  17.6177320  24.5466850   6.6284270  25.9544550  17.8350050   4.8758940
  25.2500120  18.1234940   5.4562050  26.3156710  18.6450160   4.5158500
  15.8723120  16.0919750   7.2379550  16.2139930  16.9361800   6.9433420
  14.9338930  16.2403490   7.3544890  16.6529740  25.9885770   9.2231780
  17.2703740  26.6636850   8.9416230  15.7922860  26.3973750   9.1319280
  27.5707330  27.4525180   7.1386420  26.8870850  28.1224290   7.1303090
  28.1101620  27.6505830   6.3731280  29.0231470  17.2804840   5.2668150
  28.0756380  17.3143820   5.3983580  29.3481460  18.0943790   5.6517510
  19.5551010  13.5802020   3.5624140  19.8625990  13.0248910   2.8459640
  18.6251710  13.7146480   3.3797130  25.1066070  29.2969310   5.8531600
  25.1193230  28.8931600   4.9853860  24.5541290  30.0716600   5.7493030
  24.5051510  24.1999150   7.1814210  24.9220300  23.9859260   6.3467670
  25.2291330  24.4571940   7.7522830  28.4513610  22.5986370   7.2730450
  27.6232240  22.6679460   6.7980580  29.0464090  23.1840680   6.8046280
  25.4155620  19.3855690   8.2185320  25.0026800  20.2109400   8.4725310
  24.6831570  18.8000730   8.0261680  17.5488410  22.1715590   3.0803990
  17.1445410  21.4592840   2.5849890  17.6351530  21.8268830   3.9692030
  18.0170110  25.8583150   5.2443200  17.7198400  25.2528620   4.5650980
  18.9669930  25.8960460   5.1332560  16.2617030  18.9458800   6.8603030
  16.8131620  19.0554140   6.0856280  16.7760540  19.3196400   7.5758260
  26.1055720  29.4315020   8.9066300  25.6286280  30.2387210   8.7138910
  25.4217510  28.7793350   9.0592510  17.1088540  25.5964840  11.8951000
  16.2117070  25.8204810  12.1424400  17.1341410  25.7199780  10.9462400
  15.9359760  22.4678160  10.4708370  15.7967530  23.3400960  10.8395770
  15.0541120  22.1250970  10.3256310  17.7340110  28.4099860  12.6793520
  17.7055540  28.8142810  11.8121950  17.5705080  27.4810220  12.5165120
  29.6854930  29.1926960  13.9757690  30.1614650  29.6709850  14.6546770
  30.3062090  29.1244450  13.2503190  11.8878410  24.2375710   6.3879280
  11.9658830  24.3724480   5.4435000  12.5020090  23.5291600   6.5807400
  13.1326040  25.9375900   2.7985460  12.7254120  26.0790490   1.9439060
  14.0239050  25.6536060   2.5956670  29.0888180  26.3839810  11.1357700
  29.2151240  26.1451690  10.2174880  29.1309560  25.5524350  11.6079780
  22.9504920  30.0867810   9.7052510  23.4649590  29.9975820  10.5074940
  22.1074000  30.4327510   9.9980420  24.1935380  29.5073420   1.7683000
  24.6492330  28.7262800   2.0821620  24.5327900  30.2180240   2.3124180
  28.9412190  18.4372270  12.1007440  28.3256460  18.9451940  11.5722900
  28.6208610  17.5370600  12.0433380  11.9437930  25.2789880   8.9273740
  12.1068970  24.8095240   8.1093110  12.4090380  24.7713440   9.5922580
  16.7156700  14.4095640   3.9634310  16.2724850  15.1905180   3.6318830
  17.2741690  14.7325530   4.6705250  21.0026510  17.2764160   9.5669630
  20.5405880  17.4847180  10.3789570  20.6004620  16.4623510   9.2640300
  26.0031020  18.4973110  10.6966290  25.1524610  18.1978860  11.0175360
  25.8432810  18.7415120   9.7850110  23.0980730  19.9974860  12.7965080
  23.4234140  19.1638610  12.4567310  23.8861060  20.5203380  12.9443410
  18.7532600  14.9542970   5.8223910  19.0504930  15.8605800   5.7415930
  19.3018160  14.4661750   5.2083480  18.9470130  20.4314790  12.3575830
  18.8513730  19.4909520  12.2076230  19.7902110  20.6529860  11.9623900
  14.0780670  16.8428460  10.5109610  13.6844060  17.6903670  10.7182390
  13.3899070  16.2054830  10.7018250  20.6525720  16.9263430  13.5806350
  19.9624040  16.7335630  14.2152440  21.3958020  17.2098070  14.1130650
  11.3797720  14.7656920   4.5439690  11.0910770  15.3359780   5.2564670
  12.1243480  14.2861370   4.9070920  22.9288690  20.7661870   6.4160270
  22.1969810  21.2748680   6.7650370  22.5313030  19.9491850   6.1149050
  19.3666080  17.4416070   4.8212760  19.3702140  17.0006020   3.9717300
  20.2617200  17.7633400   4.9284580  15.2168460  17.3242560   3.7806970
  14.8768510  17.8017790   4.5374020  14.4545780  16.8707680   3.4208070
  23.3914600  16.2195550   5.8283210  23.4087340  16.6704200   6.6725060
  23.1430180  15.3201190   6.0416650  26.8185350  13.6327730  11.6669590
  27.1431120  12.9017390  12.1927570  26.8541860  13.3141370  10.7650580
  13.5176910  24.6541310  11.0869550  13.1331700  24.0134980  11.6852510
  13.8289100  25.3577430  11.6564280  19.6674050  21.5017850   6.5678170
  20.0344180  21.0276420   7.3139510  19.4779110  22.3759420   6.9086510
  12.5314540  16.2461540   2.6971640  12.2461460  15.8817210   3.5350260
  12.4693400  15.5142000   2.0834780  17.4573420  20.5426490   8.8862380
  17.1530490  21.4218470   9.1112740  18.4119880  20.6026280   8.9219820
  26.7443190  23.7452840   5.2755620  27.4642310  24.2408130   4.8851730
  26.5425010  23.0670730   4.6309490  22.1261990  23.8161900  11.1624620
  22.0599300  22.8957570  10.9082210  21.4967130  23.9137340  11.8769260
  16.0292610  24.4167860   3.1208040  16.5471280  23.6136120   3.0664930
  15.5776630  24.3547000   3.9624870  13.5137150  21.3829230  10.0333740
  13.1552090  22.0483080  10.6207080  13.2191710  20.5512780  10.4046360
  16.7150270  21.8413470  12.9173290  16.4150410  21.9870650  12.0201110
  17.4861510  21.2818760  12.8246680  22.0578720  26.6382470  10.9128420
  22.0723260  25.7063430  10.6947330  21.3503820  26.7242230  11.5518190
  28.2689930  23.2789810  10.2597000  27.5438120  23.8718590  10.0626390
  28.7965390  23.2713350   9.4610370  23.7989520  25.0049980   3.7580850
  24.1513340  24.4078110   3.0982220  22.9151850  24.6794210   3.9289100
  21.4912620  28.2800040   8.0068920  22.1354840  28.4859420   8.6842340
  21.8542060  27.5188440   7.5539770  22.7644700  26.2832390   6.7246370
  23.4066930  25.5825550   6.8378540  23.2894050  27.0630830   6.5443260
  24.5382320  27.0827290   9.9282430  24.8738560  27.6693980  10.6060350
  23.6182660  26.9520000  10.1580220  12.0885720  14.8722470  10.7105840
  11.3744240  15.0719390  11.3158450  12.5080760  14.0962040  11.0820640
  12.3758310  28.8602730  11.6972370  12.4849430  27.9197470  11.5567760
  11.7238870  29.1257480  11.0486100  20.3670900  27.1318620  13.0970490
  20.0467770  26.4127860  13.6416180  19.6929260  27.8073690  13.1706550
  23.5824500  17.3644780   8.4607290  23.9505320  16.5439990   8.7886860
  22.7222700  17.4246670   8.8762940  20.5426490  20.0184370   8.6845260
  21.0411740  20.4930190   9.3497110  20.6849440  19.0947890   8.8915290
  27.7493350  16.2352330   9.5273650  27.2466950  16.9757730   9.8667460
  28.5650010  16.6236330   9.2110440  26.0415360  21.4785510   2.9735010
  25.1005500  21.4935740   3.1482700  26.3559430  20.6921470   3.4195310
  28.0440940  28.6494360   4.6489270  28.1688360  29.4725530   5.1213080
  28.9106500  28.4385090   4.3013420  15.5158470  30.7425570   4.3206400
  16.2520950  30.1941030   4.5914970  15.8999390  31.6081580   4.1812390
  14.5216750  29.9271640  13.5091980  15.3229480  30.2483690  13.9227380
  14.0068570  29.5667220  14.2311890  23.3581380  26.0351510  13.4567390
  22.7519540  26.0583110  12.7163140  23.0535490  25.3034550  13.9934640
  24.7881750  29.7631800  12.0676800  25.7403500  29.6789820  12.0177040
  24.6409970  30.4273510  12.7410590  12.2414560  22.4145100  12.4528030
  12.7453580  21.8352380  13.0244260  11.5021980  22.6985330  12.9904400
  19.2952500  23.8216090  11.9863550  18.5298170  24.3901090  11.9018220
  19.4768460  23.5292300  11.0931780  26.4375850  25.5521420  12.5438570
  27.1785320  25.8897180  12.0406030  25.6748530  25.7213480  11.9908340
  14.2737640  20.5574690  13.3478100  14.3142980  20.2588560  14.2563330
  15.1283140  20.9582300  13.1885620  16.2143450  19.1366790  11.3152590
  15.6839910  18.6457740  10.6875930  16.8831520  19.5650990  10.7810520
  25.1121510  23.6036250  11.0793780  25.5262530  23.7581330  11.9284200
  24.1772510  23.7291470  11.2419560  25.5843680  20.9432410  13.0832930
  26.1664450  20.1884730  12.9953410  25.7605450  21.4739850  12.3064410
  16.7015750  16.1029160  11.3949880  16.6072620  15.4849910  10.6700750
  16.1213140  16.8295450  11.1679790  19.4677190  14.6602400   8.4277270
  19.0194490  14.6826660   7.5822820  18.8342390  14.2621420   9.0247570
  19.8736740  23.5556730   9.0489710  20.2924850  24.3989460   8.8765950
  18.9545370  23.6928770   8.8196490  22.2100640  21.2872910  10.4327550
  22.3296850  20.6914050  11.1722390  23.0694640  21.3242600  10.0128850
  24.5488540  21.8410100   9.0090060  24.0223760  22.3652720   8.4055200
  24.8919880  22.4737490   9.6399790  17.7244160  29.8609740  10.1647440
  17.1865250  30.5855800   9.8456140  17.9778120  29.3840080   9.3744780
  18.9769410  17.8294260  11.6903370  19.5669100  17.5210110  12.3781190
  18.1589650  17.3574010  11.8463270  23.7962840  17.4460070  11.9236390
  23.1078360  16.7841610  11.8586380  24.5168860  16.9998340  12.3684850
  20.5806370  31.0960950  10.4234090  20.5065070  31.9996090  10.7306460
  19.6785210  30.7772850  10.3956160  11.9833660  28.4235540   3.7267710
  12.3136670  27.5556600   3.4946350  12.4124660  28.6294060   4.5572670
  12.4723870  29.2906130   6.4649340  12.0354860  29.4706930   7.2973490
  13.0401550  30.0480750   6.3231060  28.1086050  28.7923130  10.7526650
  27.5088040  28.8515690  10.0090570  28.2379950  27.8528110  10.8823500
  12.3048300  21.8026360   2.8238220  11.6497140  21.5338000   2.1797920
  13.1426250  21.6930840   2.3740200  29.8103930  24.1338530   3.4372490
  30.1812760  23.3505850   3.0308460  30.4505860  24.8227630   3.2589790
  26.7937690  25.5175110   8.8502810  25.9797530  25.9472270   9.1128600
  27.2011890  26.1293520   8.2371860  13.3424230  22.1878930   7.3641560
  13.7097270  22.1006330   8.2437580  12.7735050  21.4245480   7.2648420
  28.1428090  20.6563310  10.3772030  27.9114180  20.4276060   9.4769980
  28.4032640  21.5762860  10.3316920  12.8940230  19.0988020  11.2699980
  11.9996280  19.0654780  11.6093690  13.4337780  19.2974810  12.0351230
  26.5816160  15.8819740  13.1551730  27.4586340  15.8903140  13.5385730
  26.5937000  15.1450580  12.5444080  28.0279430  19.7349280   4.0439750
  28.5516910  19.2411930   3.4129920  28.6138850  19.8699640   4.7887320
  28.2069150  19.8189150   7.5659300  27.2571860  19.7852690   7.6804290
  28.3882160  20.7289260   7.3309070  13.3979940  13.3736350   5.6183200
  14.0456130  12.8233730   5.1778360  13.8181780  13.6279500   6.4399010
  28.9466560  17.6283580   2.5169840  28.8365840  17.4739620   3.4552110
  29.7074150  17.1004520   2.2745250  27.2932280  13.5677710   8.9752840
  27.9304500  14.1811850   9.3412030  27.4407170  13.6038370   8.0302070
  26.8513740  30.2693710   2.3771080  27.4472810  29.9478280   1.7005500
  27.1091890  29.7965530   3.1684350  13.1511940  13.5292020   8.3608520
  12.8026760  13.9855840   9.1266700  12.8199640  12.6349150   8.4430950
  14.7576310  26.7011620  12.5261710  14.7145940  26.3304530  13.4076170
  14.8887320  27.6389190  12.6663530  18.4582340  28.2571210   8.1271430
  18.2173700  28.5245770   7.2401950  19.3984980  28.4276940   8.1822290
  20.6636760  14.7203900  11.8827940  20.6025650  15.3125730  12.6323350
  21.6037140  14.6129860  11.7378200  23.3011320  14.3773960  11.5220230
  23.9151730  14.6953250  10.8601310  23.8460880  13.8922550  12.1416090
  29.7186500  30.2765590   8.9282070  29.2244780  30.6734460   8.2109200
  29.1099790  29.6514800   9.3219350  13.8232580  13.0568220  11.6359290
  14.3715570  12.8756270  10.8725400  13.8887890  12.2662330  12.1715600
  14.5964340  29.6473870   9.6459490  14.0024660  29.5158570  10.3849530
  14.5888180  28.8112010   9.1801590  24.0419360  12.9406100   7.8489520
  23.1679200  13.2741210   7.6462450  23.9330110  12.4679280   8.6741390
  24.9491340  15.1476970   9.2331240  24.6204700  14.3328730   8.8532970
  25.8973640  15.1046780   9.1096930  27.4025950  30.9189010   6.2068810
  26.9428920  31.6704820   5.8326830  26.7738410  30.1995480   6.1483610
  14.2276570  27.0132250   8.5967530  13.5010630  26.3937540   8.5293480
  14.2885720  27.4072860   7.7265610  17.8321670  29.2277250   5.3816940
  18.3486690  28.6164610   4.8565200  18.4819050  29.7306030   5.8727950
  20.5717170  30.1185740   6.2085920  20.8594980  29.8640040   5.3318930
  21.0840390  29.5663100   6.7991490  21.7894180  13.8575940   6.7882430
  21.0065970  14.3321440   7.0679190  21.4957110  12.9530770   6.6795610
  26.3415250  14.5599040   4.8331520  26.7823340  14.5044140   3.9853120
  26.0722840  15.4757050   4.9041700  28.2053820  14.1914280   2.8440340
  28.1442220  13.2475500   2.6971360  28.9845850  14.2994370   3.3893800
  19.6748400  16.2762690   2.2998460  18.8622910  15.9019580   1.9594340
  20.1790040  15.5207770   2.6019650  24.1773380  12.9405140   3.5381530
  24.7802750  13.5125350   4.0130050  23.4366370  13.5044580   3.3155430
  20.6389530  31.0401840  13.5754120  21.5656840  30.8046110  13.6190080
  20.6239960  31.8673840  13.0940150  17.8253140  13.7046590  13.3396000
  17.5437410  14.2080190  12.5756820  18.2072840  12.9068340  12.9738130
  24.4268600  13.1200170  13.9176470  24.3134050  13.4394780  14.8127990
  25.2438340  13.5212680  13.6213750  27.2067090  30.2671700  13.3995160
  27.9992410  29.7720930  13.1921120  27.5000240  30.9461840  14.0070770
  23.3326750   2.3649150  96.9272150  23.2520800   1.4503760  96.6563860
  22.9191170   2.8616220  96.2211860  21.4644790   4.1428170  98.8081420
  20.6886890   3.6628610  99.0979990  22.1157720   3.4633820  98.6337580
  15.4810620   4.4547980  99.6857180  14.6495500   4.1996690 100.0853690
  16.0891600   4.5258750 100.4215100  25.4852220   8.5488360  97.5880550
  25.0233750   7.7775600  97.9167720  26.2977770   8.5754430  98.0933000
  15.4611880   8.4888070  99.8815200  15.7639920   7.5985810  99.7025420
  16.2055470   9.0458290  99.6537450  11.8535580   2.0155520  99.3539270
  12.4251690   1.2477720  99.3542910  11.8537120   2.3144280  98.4445880
  21.7115530  10.8346370  97.2084540  21.0926970  11.2903870  96.6378980
  22.5667310  10.9897830  96.8074240  20.9053780   6.8185360  98.8151580
  20.8362060   5.8775300  98.6540710  21.6673640   6.9086770  99.3874150
  22.5778880   5.7185610  94.6016450  21.9596150   6.1835060  94.0379170
  23.0902130   6.4113090  95.0185960  11.9462080   6.4042140  91.9756080
  11.5690060   6.8929240  91.2440980  12.2035150   7.0767420  92.6062610
  27.5707330   8.6781690 101.0103870  26.8870850   9.3480800 101.0020540
  28.1101620   8.8762340 100.2448730  25.1066070  10.5225820  99.7249050
  25.1193230  10.1188110  98.8571310  24.5541290  11.2973110  99.6210480
  26.4011490   7.2442040  94.8139220  26.2907820   6.3016370  94.9388640
  26.3979740   7.6057680  95.7001980  24.5051510   5.4255660 101.0531660
  24.9220300   5.2115770 100.2185120  25.2291330   5.6828450 101.6240280
  21.9431770   2.8707360  94.1701710  21.0161050   2.8044740  94.3990180
  22.0956590   3.8087490  94.0556950  28.4513610   3.8242880 101.1447900
  27.6232240   3.8935970 100.6698030  29.0464090   4.4097190 100.6763730
  25.9729060   4.4327660  94.6736960  25.3541480   4.0947210  94.0263260
  25.9553510   3.7887420  95.3816150  17.5488410   3.3972100  96.9521440
  17.1445410   2.6849350  96.4567340  17.6351530   3.0525340  97.8409480
  18.0170110   7.0839660  99.1160650  17.7198400   6.4785130  98.4368430
  18.9669930   7.1216970  99.0050010  24.1493760   3.6714470  91.6809710
  24.5887040   2.8336900  91.5347530  24.8622180   4.3043870  91.7673850
  22.2589140   8.6110540  95.6490950  22.6985050   9.3534870  95.2346340
  22.1976030   8.8537110  96.5729910  14.2493040   2.2917080  94.4528090
  14.1290640   3.0179170  93.8409360  13.9393930   1.5219990  93.9756000
  11.8878410   5.4632220 100.2596730  11.9658830   5.5980990  99.3152450
  12.5020090   4.7548110 100.4524850  13.1326040   7.1632410  96.6702910
  12.7254120   7.3047000  95.8156510  14.0239050   6.8792570  96.4674120
  24.9259320  11.5979660  93.0053960  24.7660460  11.3082600  93.9035790
  24.7606030  10.8219790  92.4699190  17.4047700  11.3778190  94.7825580
  17.2290180  10.4613730  94.5693380  16.5503440  11.7365480  95.0223380
  24.6285450   9.1067220  91.5651960  23.9350610   9.1044510  90.9054240
  25.3708310   8.6826540  91.1346130  24.1935380  10.7329930  95.6400450
  24.6492330   9.9519310  95.9539070  24.5327900  11.4436750  96.1841630
  22.9288690   1.9918380 100.2877720  22.1969810   2.5005190 100.6367820
  22.5313030   1.1748360  99.9866500  18.4407730   1.9785800  91.0820270
  17.8724630   1.5304050  90.4556180  19.1496730   2.3378580  90.5485420
  19.6674050   2.7274360 100.4395620  20.0344180   2.2532930 101.1856960
  19.4779110   3.6015930 100.7803960  15.9855210   5.9743990  93.3546680
  15.2117470   5.4341610  93.1945400  16.7149840   5.4550600  93.0164440
  26.7443190   4.9709350  99.1473070  27.4642310   5.4664640  98.7569180
  26.5425010   4.2927240  98.5026940  16.0292610   5.6424370  96.9925490
  16.5471280   4.8392630  96.9382380  15.5776630   5.5803510  97.8342320
  20.9162110   6.9090650  92.2652790  21.2577810   7.6532880  91.7696110
  20.0874820   7.2221770  92.6277620  27.1915790   2.0478800  91.0544480
  27.1079510   2.4793020  90.2040920  27.9109980   2.5077150  91.4871300
  28.2203040   8.9021060  93.7826610  27.5779200   8.2476680  94.0570330
  27.8333700   9.3076150  93.0067280  23.7989520   6.2306490  97.6298300
  24.1513340   5.6334620  96.9699670  22.9151850   5.9050720  97.8006550
  19.8852800   6.9904180  95.0368710  20.5723930   7.5373390  95.4176300
  19.0985220   7.5344910  95.0718320  12.0245200   2.6077000  90.5285790
  12.8940050   2.8901800  90.8121710  11.5335520   3.4212870  90.4134600
  19.1880010   3.9950210  94.6494070  19.6442790   4.8055460  94.8754260
  18.8368220   3.6773350  95.4812560  22.7644700   7.5088900 100.5963820
  23.4066930   6.8082060 100.7095990  23.2894050   8.2887340 100.4160710
  26.6100420   7.7937520  90.3202960  26.3838000   7.0767960  90.9127600
  26.2196620   7.5449960  89.4824710  12.3916450  11.8204380  91.0947420
  12.7514090  12.4193720  90.4404690  12.2508790  12.3664270  91.8682450
  26.1916670   5.7109460  91.9817120  25.9038370   6.1722150  92.7695000
  26.9868840   5.2507230  92.2501340  18.4085070   9.2035580  91.9121090
  18.3995170   9.9365270  91.2965600  17.4883430   8.9567160  92.0048050
  14.0091710   4.4250470  92.6567850  13.4019660   5.1649370  92.6663150
  14.4841060   4.5149830  91.8306050  21.3944670   9.2663820  90.5746280
  21.4956650   9.0627810  89.6448260  20.4946410   9.0122100  90.7794060
  20.0362780  11.7850140  95.2693950  20.2904280  11.7471530  94.3473320
  19.0875260  11.6583470  95.2622200  26.0415360   2.7042020  96.8452460
  25.1005500   2.7192250  97.0200150  26.3559430   1.9177980  97.2912760
  16.0197000   4.3861620  90.4056420  16.7860270   4.2742980  90.9681850
  16.0971690   3.6899590  89.7533190  28.0440940   9.8750870  98.5206720
  28.1688360  10.6982040  98.9930530  28.9106500   9.6641600  98.1730870
  15.5158470  11.9682080  98.1923850  16.2520950  11.4197540  98.4632420
  15.8999390  12.8338090  98.0529840  12.4003950   8.0355650  94.0665360
  11.4743730   8.2776790  94.0570770  12.8660380   8.8629910  93.9450110
  18.6260780  11.1412390  90.0149420  19.4189390  11.4301220  89.5631210
  18.1065130  10.7104560  89.3361900  27.6790950  10.3682520  91.4386160
  27.3932460   9.9547660  90.6240340  27.4810500  11.2970230  91.3186680
  19.1438180   6.3615800  89.8791770  19.0388820   5.7468150  90.6053150
  18.9762400   5.8381690  89.0954780  22.3840910   5.4235830  90.4833760
  21.8351010   5.8705130  91.1276500  23.0060170   4.9185080  91.0071430
  18.0516030   4.3826750  92.3799060  18.4732450   4.2166620  93.2230450
  18.1766870   3.5726980  91.8854200  20.5643670   3.4064360  89.6276160
  21.0849330   2.6913380  89.2617310  21.2112070   4.0450230  89.9276670
  21.1291700  11.4875970  91.9177900  22.0242490  11.8260940  91.9396660
  21.1609330  10.7655380  91.2902180  14.7687860   6.8603020  90.1464900
  15.2062730   7.4032690  90.8022480  15.2535590   6.0349970  90.1561240
  11.9833660   9.6492050  97.5985160  12.3136670   8.7813110  97.3663800
  12.4124660   9.8550570  98.4290120  16.5795580   7.9801060  95.2587130
  16.2791120   7.8566030  96.1591040  16.4733070   7.1209650  94.8502860
  12.4723870  10.5162640 100.3366790  12.0354860  10.6963440 101.1690940
  13.0401550  11.2737260 100.1948510  29.3487500   7.7597460  89.9613810
  28.5180460   7.8274110  90.4321040  29.5259330   8.6501580  89.6580670
  28.8043960   4.5044940  92.4648010  29.5662870   5.0741590  92.5707700
  28.8198330   3.9372140  93.2356320  12.3048300   3.0282870  96.6955670
  11.6497140   2.7594510  96.0515370  13.1426250   2.9187350  96.2457650
  29.8103930   5.3595040  97.3089940  30.1812760   4.5762360  96.9025910
  30.4505860   6.0484140  97.1307240  28.8563130   4.7979310  89.6220530
  29.1311970   5.7058190  89.4939750  28.6673870   4.7341840  90.5582520
  28.7528470   2.7348300  94.6149960  28.3772070   1.9676230  94.1831250
  28.0231590   3.1171000  95.1024890  26.8513740  11.4950220  96.2488530
  27.4472810  11.1734790  95.5722950  27.1091890  11.0222040  97.0401800
  27.4025950  12.1445520 100.0786260  26.9428920  12.8961330  99.7044280
  26.7738410  11.4251990 100.0201060  17.8321670  10.4533760  99.2534390
  18.3486690   9.8421120  98.7282650  18.4819050  10.9562540  99.7445400
  20.5717170  11.3442250 100.0803370  20.8594980  11.0896550  99.2036380
  21.0840390  10.7919610 100.6708940  12.5106570  11.5563150  95.6781740
  12.3428610  10.9233830  96.3763630  11.6441080  11.7622550  95.3275930
  14.1169270  10.2496380  93.1231880  13.5916890  10.6304410  92.4193840
  14.0413850  10.8747150  93.8441590  28.8734590  11.8083920  94.4445820
  29.0486780  11.1221660  93.8006740  28.1756160  12.3330970  94.0522490
  16.7162240  12.1978760  91.9981130  17.4481060  11.9138040  91.4505020
  16.9755910  11.9592040  92.8880510  15.8777030   8.3143490  92.0027460
  15.2485910   8.7828590  92.5513290  15.9924860   7.4692710  92.4373650
  23.3326750   2.3649150  78.1528660  23.2520800   1.4503760  77.8820370
  22.9191170   2.8616220  77.4468370  21.4644790   4.1428170  80.0337930
  20.6886890   3.6628610  80.3236500  22.1157720   3.4633820  79.8594090
  15.4810620   4.4547980  80.9113690  14.6495500   4.1996690  81.3110200
  16.0891600   4.5258750  81.6471610  25.4852220   8.5488360  78.8137060
  25.0233750   7.7775600  79.1424230  26.2977770   8.5754430  79.3189510
  15.4611880   8.4888070  81.1071710  15.7639920   7.5985810  80.9281930
  16.2055470   9.0458290  80.8793960  11.8535580   2.0155520  80.5795780
  12.4251690   1.2477720  80.5799420  11.8537120   2.3144280  79.6702390
  21.7115530  10.8346370  78.4341050  21.0926970  11.2903870  77.8635490
  22.5667310  10.9897830  78.0330750  20.9053780   6.8185360  80.0408090
  20.8362060   5.8775300  79.8797220  21.6673640   6.9086770  80.6130660
  22.5778880   5.7185610  75.8272960  21.9596150   6.1835060  75.2635680
  23.0902130   6.4113090  76.2442470  17.4410640   5.2461480  82.5056560
  17.1080020   5.8730400  83.1477630  17.6177320   5.7723360  81.7258230
  16.6529740   7.2142280  84.3205740  17.2703740   7.8893360  84.0390190
  15.7922860   7.6230260  84.2293240  11.9462080   6.4042140  73.2012590
  11.5690060   6.8929240  72.4697490  12.2035150   7.0767420  73.8319120
  27.5707330   8.6781690  82.2360380  26.8870850   9.3480800  82.2277050
  28.1101620   8.8762340  81.4705240  25.1066070  10.5225820  80.9505560
  25.1193230  10.1188110  80.0827820  24.5541290  11.2973110  80.8466990
  26.4011490   7.2442040  76.0395730  26.2907820   6.3016370  76.1645150
  26.3979740   7.6057680  76.9258490  24.5051510   5.4255660  82.2788170
  24.9220300   5.2115770  81.4441630  25.2291330   5.6828450  82.8496790
  21.9431770   2.8707360  75.3958220  21.0161050   2.8044740  75.6246690
  22.0956590   3.8087490  75.2813460  28.4513610   3.8242880  82.3704410
  27.6232240   3.8935970  81.8954540  29.0464090   4.4097190  81.9020240
  25.9729060   4.4327660  75.8993470  25.3541480   4.0947210  75.2519770
  25.9553510   3.7887420  76.6072660  17.5488410   3.3972100  78.1777950
  17.1445410   2.6849350  77.6823850  17.6351530   3.0525340  79.0665990
  18.0170110   7.0839660  80.3417160  17.7198400   6.4785130  79.6624940
  18.9669930   7.1216970  80.2306520  26.1055720  10.6571530  84.0040260
  25.6286280  11.4643720  83.8112870  25.4217510  10.0049860  84.1566470
  17.1088540   6.8221350  86.9924960  16.2117070   7.0461320  87.2398360
  17.1341410   6.9456290  86.0436360  24.1493760   3.6714470  72.9066220
  24.5887040   2.8336900  72.7604040  24.8622180   4.3043870  72.9930360
  15.9359760   3.6934670  85.5682330  15.7967530   4.5657470  85.9369730
  15.0541120   3.3507480  85.4230270  22.2589140   8.6110540  76.8747460
  22.6985050   9.3534870  76.4602850  22.1976030   8.8537110  77.7986420
  17.7340110   9.6356370  87.7767480  17.7055540  10.0399320  86.9095910
  17.5705080   8.7066730  87.6139080  14.2493040   2.2917080  75.6784600
  14.1290640   3.0179170  75.0665870  13.9393930   1.5219990  75.2012510
  29.6854930  10.4183470  89.0731650  30.1614650  10.8966360  89.7520730
  30.3062090  10.3500960  88.3477150  11.8878410   5.4632220  81.4853240
  11.9658830   5.5980990  80.5408960  12.5020090   4.7548110  81.6781360
  13.1326040   7.1632410  77.8959420  12.7254120   7.3047000  77.0413020
  14.0239050   6.8792570  77.6930630  29.0888180   7.6096320  86.2331660
  29.2151240   7.3708200  85.3148840  29.1309560   6.7780860  86.7053740
  22.9504920  11.3124320  84.8026470  23.4649590  11.2232330  85.6048900
  22.1074000  11.6584020  85.0954380  24.9259320  11.5979660  74.2310470
  24.7660460  11.3082600  75.1292300  24.7606030  10.8219790  73.6955700
  17.4047700  11.3778190  76.0082090  17.2290180  10.4613730  75.7949890
  16.5503440  11.7365480  76.2479890  24.6285450   9.1067220  72.7908470
  23.9350610   9.1044510  72.1310750  25.3708310   8.6826540  72.3602640
  24.1935380  10.7329930  76.8656960  24.6492330   9.9519310  77.1795580
  24.5327900  11.4436750  77.4098140  11.9437930   6.5046390  84.0247700
  12.1068970   6.0351750  83.2067070  12.4090380   5.9969950  84.6896540
  22.9288690   1.9918380  81.5134230  22.1969810   2.5005190  81.8624330
  22.5313030   1.1748360  81.2123010  18.4407730   1.9785800  72.3076780
  17.8724630   1.5304050  71.6812690  19.1496730   2.3378580  71.7741930
  13.5176910   5.8797820  86.1843510  13.1331700   5.2391490  86.7826470
  13.8289100   6.5833940  86.7538240  19.6674050   2.7274360  81.6652130
  20.0344180   2.2532930  82.4113470  19.4779110   3.6015930  82.0060470
  17.4573420   1.7683000  83.9836340  17.1530490   2.6474980  84.2086700
  18.4119880   1.8282790  84.0193780  15.9855210   5.9743990  74.5803190
  15.2117470   5.4341610  74.4201910  16.7149840   5.4550600  74.2420950
  26.7443190   4.9709350  80.3729580  27.4642310   5.4664640  79.9825690
  26.5425010   4.2927240  79.7283450  22.1261990   5.0418410  86.2598580
  22.0599300   4.1214080  86.0056170  21.4967130   5.1393850  86.9743220
  16.0292610   5.6424370  78.2182000  16.5471280   4.8392630  78.1638890
  15.5776630   5.5803510  79.0598830  20.9162110   6.9090650  73.4909300
  21.2577810   7.6532880  72.9952620  20.0874820   7.2221770  73.8534130
  13.5137150   2.6085740  85.1307700  13.1552090   3.2739590  85.7181040
  13.2191710   1.7769290  85.5020320  16.7150270   3.0669980  88.0147250
  16.4150410   3.2127160  87.1175070  17.4861510   2.5075270  87.9220640
  22.0578720   7.8638980  86.0102380  22.0723260   6.9319940  85.7921290
  21.3503820   7.9498740  86.6492150  27.1915790   2.0478800  72.2800990
  27.1079510   2.4793020  71.4297430  27.9109980   2.5077150  72.7127810
  28.2689930   4.5046320  85.3570960  27.5438120   5.0975100  85.1600350
  28.7965390   4.4969860  84.5584330  28.2203040   8.9021060  75.0083120
  27.5779200   8.2476680  75.2826840  27.8333700   9.3076150  74.2323790
  23.7989520   6.2306490  78.8554810  24.1513340   5.6334620  78.1956180
  22.9151850   5.9050720  79.0263060  19.8852800   6.9904180  76.2625220
  20.5723930   7.5373390  76.6432810  19.0985220   7.5344910  76.2974830
  12.0245200   2.6077000  71.7542300  12.8940050   2.8901800  72.0378220
  11.5335520   3.4212870  71.6391110  19.1880010   3.9950210  75.8750580
  19.6442790   4.8055460  76.1010770  18.8368220   3.6773350  76.7069070
  21.4912620   9.5056550  83.1042880  22.1354840   9.7115930  83.7816300
  21.8542060   8.7444950  82.6513730  22.7644700   7.5088900  81.8220330
  23.4066930   6.8082060  81.9352500  23.2894050   8.2887340  81.6417220
  26.6100420   7.7937520  71.5459470  26.3838000   7.0767960  72.1384110
  26.2196620   7.5449960  70.7081220  24.5382320   8.3083800  85.0256390
  24.8738560   8.8950490  85.7034310  23.6182660   8.1776510  85.2554180
  12.3916450  11.8204380  72.3203930  12.7514090  12.4193720  71.6661200
  12.2508790  12.3664270  73.0938960  26.1916670   5.7109460  73.2073630
  25.9038370   6.1722150  73.9951510  26.9868840   5.2507230  73.4757850
  12.3758310  10.0859240  86.7946330  12.4849430   9.1453980  86.6541720
  11.7238870  10.3513990  86.1460060  20.3670900   8.3575130  88.1944450
  20.0467770   7.6384370  88.7390140  19.6929260   9.0330200  88.2680510
  18.4085070   9.2035580  73.1377600  18.3995170   9.9365270  72.5222110
  17.4883430   8.9567160  73.2304560  14.0091710   4.4250470  73.8824360
  13.4019660   5.1649370  73.8919660  14.4841060   4.5149830  73.0562560
  21.3944670   9.2663820  71.8002790  21.4956650   9.0627810  70.8704770
  20.4946410   9.0122100  72.0050570  20.0362780  11.7850140  76.4950460
  20.2904280  11.7471530  75.5729830  19.0875260  11.6583470  76.4878710
  26.0415360   2.7042020  78.0708970  25.1005500   2.7192250  78.2456660
  26.3559430   1.9177980  78.5169270  16.0197000   4.3861620  71.6312930
  16.7860270   4.2742980  72.1938360  16.0971690   3.6899590  70.9789700
  28.0440940   9.8750870  79.7463230  28.1688360  10.6982040  80.2187040
  28.9106500   9.6641600  79.3987380  15.5158470  11.9682080  79.4180360
  16.2520950  11.4197540  79.6888930  15.8999390  12.8338090  79.2786350
  12.4003950   8.0355650  75.2921870  11.4743730   8.2776790  75.2827280
  12.8660380   8.8629910  75.1706620  14.5216750  11.1528150  88.6065940
  15.3229480  11.4740200  89.0201340  14.0068570  10.7923730  89.3285850
  18.6260780  11.1412390  71.2405930  19.4189390  11.4301220  70.7887720
  18.1065130  10.7104560  70.5618410  23.3581380   7.2608020  88.5541350
  22.7519540   7.2839620  87.8137100  23.0535490   6.5291060  89.0908600
  24.7881750  10.9888310  87.1650760  25.7403500  10.9046330  87.1151000
  24.6409970  11.6530020  87.8384550  27.6790950  10.3682520  72.6642670
  27.3932460   9.9547660  71.8496850  27.4810500  11.2970230  72.5443190
  12.2414560   3.6401610  87.5501990  12.7453580   3.0608890  88.1218220
  11.5021980   3.9241840  88.0878360  19.1438180   6.3615800  71.1048280
  19.0388820   5.7468150  71.8309660  18.9762400   5.8381690  70.3211290
  19.2952500   5.0472600  87.0837510  18.5298170   5.6157600  86.9992180
  19.4768460   4.7548810  86.1905740  22.3840910   5.4235830  71.7090270
  21.8351010   5.8705130  72.3533010  23.0060170   4.9185080  72.2327940
  26.4375850   6.7777930  87.6412530  27.1785320   7.1153690  87.1379990
  25.6748530   6.9469990  87.0882300  14.2737640   1.7831200  88.4452060
  14.3142980   1.4845070  89.3537290  15.1283140   2.1838810  88.2859580
  18.0516030   4.3826750  73.6055570  18.4732450   4.2166620  74.4486960
  18.1766870   3.5726980  73.1110710  20.5643670   3.4064360  70.8532670
  21.0849330   2.6913380  70.4873820  21.2112070   4.0450230  71.1533180
  25.1121510   4.8292760  86.1767740  25.5262530   4.9837840  87.0258160
  24.1772510   4.9547980  86.3393520  25.5843680   2.1688920  88.1806890
  26.1664450   1.4141240  88.0927370  25.7605450   2.6996360  87.4038370
  19.8736740   4.7813240  84.1463670  20.2924850   5.6245970  83.9739910
  18.9545370   4.9185280  83.9170450  22.2100640   2.5129420  85.5301510
  22.3296850   1.9170560  86.2696350  23.0694640   2.5499110  85.1102810
  24.5488540   3.0666610  84.1064020  24.0223760   3.5909230  83.5029160
  24.8919880   3.6994000  84.7373750  17.7244160  11.0866250  85.2621400
  17.1865250  11.8112310  84.9430100  17.9778120  10.6096590  84.4718740
  20.5806370  12.3217460  85.5208050  20.5065070  13.2252600  85.8280420
  19.6785210  12.0029360  85.4930120  21.1291700  11.4875970  73.1434410
  22.0242490  11.8260940  73.1653170  21.1609330  10.7655380  72.5158690
  14.7687860   6.8603020  71.3721410  15.2062730   7.4032690  72.0278990
  15.2535590   6.0349970  71.3817750  11.9833660   9.6492050  78.8241670
  12.3136670   8.7813110  78.5920310  12.4124660   9.8550570  79.6546630
  16.5795580   7.9801060  76.4843640  16.2791120   7.8566030  77.3847550
  16.4733070   7.1209650  76.0759370  12.4723870  10.5162640  81.5623300
  12.0354860  10.6963440  82.3947450  13.0401550  11.2737260  81.4205020
  28.1086050  10.0179640  85.8500610  27.5088040  10.0772200  85.1064530
  28.2379950   9.0784620  85.9797460  29.3487500   7.7597460  71.1870320
  28.5180460   7.8274110  71.6577550  29.5259330   8.6501580  70.8837180
  28.8043960   4.5044940  73.6904520  29.5662870   5.0741590  73.7964210
  28.8198330   3.9372140  74.4612830  12.3048300   3.0282870  77.9212180
  11.6497140   2.7594510  77.2771880  13.1426250   2.9187350  77.4714160
  29.8103930   5.3595040  78.5346450  30.1812760   4.5762360  78.1282420
  30.4505860   6.0484140  78.3563750  26.7937690   6.7431620  83.9476770
  25.9797530   7.1728780  84.2102560  27.2011890   7.3550030  83.3345820
  28.8563130   4.7979310  70.8477040  29.1311970   5.7058190  70.7196260
  28.6673870   4.7341840  71.7839030  28.7528470   2.7348300  75.8406470
  28.3772070   1.9676230  75.4087760  28.0231590   3.1171000  76.3281400
  13.3424230   3.4135440  82.4615520  13.7097270   3.3262840  83.3411540
  12.7735050   2.6501990  82.3622380  28.1428090   1.8819820  85.4745990
  27.9114180   1.6532570  84.5743940  28.4032640   2.8019370  85.4290880
  26.8513740  11.4950220  77.4745040  27.4472810  11.1734790  76.7979460
  27.1091890  11.0222040  78.2658310  14.7576310   7.9268130  87.6235670
  14.7145940   7.5561040  88.5050130  14.8887320   8.8645700  87.7637490
  18.4582340   9.4827720  83.2245390  18.2173700   9.7502280  82.3375910
  19.3984980   9.6533450  83.2796250  29.7186500  11.5022100  84.0256030
  29.2244780  11.8990970  83.3083160  29.1099790  10.8771310  84.4193310
  14.5964340  10.8730380  84.7433450  14.0024660  10.7415080  85.4823490
  14.5888180  10.0368520  84.2775550  27.4025950  12.1445520  81.3042770
  26.9428920  12.8961330  80.9300790  26.7738410  11.4251990  81.2457570
  14.2276570   8.2388760  83.6941490  13.5010630   7.6194050  83.6267440
  14.2885720   8.6329370  82.8239570  17.8321670  10.4533760  80.4790900
  18.3486690   9.8421120  79.9539160  18.4819050  10.9562540  80.9701910
  20.5717170  11.3442250  81.3059880  20.8594980  11.0896550  80.4292890
  21.0840390  10.7919610  81.8965450  12.5106570  11.5563150  76.9038250
  12.3428610  10.9233830  77.6020140  11.6441080  11.7622550  76.5532440
  14.1169270  10.2496380  74.3488390  13.5916890  10.6304410  73.6450350
  14.0413850  10.8747150  75.0698100  20.6389530  12.2658350  88.6728080
  21.5656840  12.0302620  88.7164040  20.6239960  13.0930350  88.1914110
  28.8734590  11.8083920  75.6702330  29.0486780  11.1221660  75.0263250
  28.1756160  12.3330970  75.2779000  16.7162240  12.1978760  73.2237640
  17.4481060  11.9138040  72.6761530  16.9755910  11.9592040  74.1137020
  15.8777030   8.3143490  73.2283970  15.2485910   8.7828590  73.7769800
  15.9924860   7.4692710  73.6630160  27.2067090  11.4928210  88.4969120
  27.9992410  10.9977440  88.2895080  27.5000240  12.1718350  89.1044730
  23.3326750   2.3649150  59.3785170  23.2520800   1.4503760  59.1076880
  22.9191170   2.8616220  58.6724880  21.4644790   4.1428170  61.2594440
  20.6886890   3.6628610  61.5493010  22.1157720   3.4633820  61.0850600
  15.4810620   4.4547980  62.1370200  14.6495500   4.1996690  62.5366710
  16.0891600   4.5258750  62.8728120  25.4852220   8.5488360  60.0393570
  25.0233750   7.7775600  60.3680740  26.2977770   8.5754430  60.5446020
  15.4611880   8.4888070  62.3328220  15.7639920   7.5985810  62.1538440
  16.2055470   9.0458290  62.1050470  11.8535580   2.0155520  61.8052290
  12.4251690   1.2477720  61.8055930  11.8537120   2.3144280  60.8958900
  21.7115530  10.8346370  59.6597560  21.0926970  11.2903870  59.0892000
  22.5667310  10.9897830  59.2587260  20.9053780   6.8185360  61.2664600
  20.8362060   5.8775300  61.1053730  21.6673640   6.9086770  61.8387170
  22.5778880   5.7185610  57.0529470  21.9596150   6.1835060  56.4892190
  23.0902130   6.4113090  57.4698980  17.4410640   5.2461480  63.7313070
  17.1080020   5.8730400  64.3734140  17.6177320   5.7723360  62.9514740
  16.6529740   7.2142280  65.5462250  17.2703740   7.8893360  65.2646700
  15.7922860   7.6230260  65.4549750  11.9462080   6.4042140  54.4269100
  11.5690060   6.8929240  53.6954000  12.2035150   7.0767420  55.0575630
  27.5707330   8.6781690  63.4616890  26.8870850   9.3480800  63.4533560
  28.1101620   8.8762340  62.6961750  25.1066070  10.5225820  62.1762070
  25.1193230  10.1188110  61.3084330  24.5541290  11.2973110  62.0723500
  26.4011490   7.2442040  57.2652240  26.2907820   6.3016370  57.3901660
  26.3979740   7.6057680  58.1515000  24.5051510   5.4255660  63.5044680
  24.9220300   5.2115770  62.6698140  25.2291330   5.6828450  64.0753300
  21.9431770   2.8707360  56.6214730  21.0161050   2.8044740  56.8503200
  22.0956590   3.8087490  56.5069970  28.4513610   3.8242880  63.5960920
  27.6232240   3.8935970  63.1211050  29.0464090   4.4097190  63.1276750
  25.9729060   4.4327660  57.1249980  25.3541480   4.0947210  56.4776280
  25.9553510   3.7887420  57.8329170  17.5488410   3.3972100  59.4034460
  17.1445410   2.6849350  58.9080360  17.6351530   3.0525340  60.2922500
  18.0170110   7.0839660  61.5673670  17.7198400   6.4785130  60.8881450
  18.9669930   7.1216970  61.4563030  26.1055720  10.6571530  65.2296770
  25.6286280  11.4643720  65.0369380  25.4217510  10.0049860  65.3822980
  17.1088540   6.8221350  68.2181470  16.2117070   7.0461320  68.4654870
  17.1341410   6.9456290  67.2692870  24.1493760   3.6714470  54.1322730
  24.5887040   2.8336900  53.9860550  24.8622180   4.3043870  54.2186870
  15.9359760   3.6934670  66.7938840  15.7967530   4.5657470  67.1626240
  15.0541120   3.3507480  66.6486780  22.2589140   8.6110540  58.1003970
  22.6985050   9.3534870  57.6859360  22.1976030   8.8537110  59.0242930
  17.7340110   9.6356370  69.0023990  17.7055540  10.0399320  68.1352420
  17.5705080   8.7066730  68.8395590  14.2493040   2.2917080  56.9041110
  14.1290640   3.0179170  56.2922380  13.9393930   1.5219990  56.4269020
  29.6854930  10.4183470  70.2988160  30.1614650  10.8966360  70.9777240
  30.3062090  10.3500960  69.5733660  11.8878410   5.4632220  62.7109750
  11.9658830   5.5980990  61.7665470  12.5020090   4.7548110  62.9037870
  13.1326040   7.1632410  59.1215930  12.7254120   7.3047000  58.2669530
  14.0239050   6.8792570  58.9187140  29.0888180   7.6096320  67.4588170
  29.2151240   7.3708200  66.5405350  29.1309560   6.7780860  67.9310250
  22.9504920  11.3124320  66.0282980  23.4649590  11.2232330  66.8305410
  22.1074000  11.6584020  66.3210890  24.9259320  11.5979660  55.4566980
  24.7660460  11.3082600  56.3548810  24.7606030  10.8219790  54.9212210
  17.4047700  11.3778190  57.2338600  17.2290180  10.4613730  57.0206400
  16.5503440  11.7365480  57.4736400  24.6285450   9.1067220  54.0164980
  23.9350610   9.1044510  53.3567260  25.3708310   8.6826540  53.5859150
  24.1935380  10.7329930  58.0913470  24.6492330   9.9519310  58.4052090
  24.5327900  11.4436750  58.6354650  11.9437930   6.5046390  65.2504210
  12.1068970   6.0351750  64.4323580  12.4090380   5.9969950  65.9153050
  22.9288690   1.9918380  62.7390740  22.1969810   2.5005190  63.0880840
  22.5313030   1.1748360  62.4379520  18.4407730   1.9785800  53.5333290
  17.8724630   1.5304050  52.9069200  19.1496730   2.3378580  52.9998440
  13.5176910   5.8797820  67.4100020  13.1331700   5.2391490  68.0082980
  13.8289100   6.5833940  67.9794750  19.6674050   2.7274360  62.8908640
  20.0344180   2.2532930  63.6369980  19.4779110   3.6015930  63.2316980
  17.4573420   1.7683000  65.2092850  17.1530490   2.6474980  65.4343210
  18.4119880   1.8282790  65.2450290  15.9855210   5.9743990  55.8059700
  15.2117470   5.4341610  55.6458420  16.7149840   5.4550600  55.4677460
  26.7443190   4.9709350  61.5986090  27.4642310   5.4664640  61.2082200
  26.5425010   4.2927240  60.9539960  22.1261990   5.0418410  67.4855090
  22.0599300   4.1214080  67.2312680  21.4967130   5.1393850  68.1999730
  16.0292610   5.6424370  59.4438510  16.5471280   4.8392630  59.3895400
  15.5776630   5.5803510  60.2855340  20.9162110   6.9090650  54.7165810
  21.2577810   7.6532880  54.2209130  20.0874820   7.2221770  55.0790640
  13.5137150   2.6085740  66.3564210  13.1552090   3.2739590  66.9437550
  13.2191710   1.7769290  66.7276830  16.7150270   3.0669980  69.2403760
  16.4150410   3.2127160  68.3431580  17.4861510   2.5075270  69.1477150
  22.0578720   7.8638980  67.2358890  22.0723260   6.9319940  67.0177800
  21.3503820   7.9498740  67.8748660  27.1915790   2.0478800  53.5057500
  27.1079510   2.4793020  52.6553940  27.9109980   2.5077150  53.9384320
  28.2689930   4.5046320  66.5827470  27.5438120   5.0975100  66.3856860
  28.7965390   4.4969860  65.7840840  28.2203040   8.9021060  56.2339630
  27.5779200   8.2476680  56.5083350  27.8333700   9.3076150  55.4580300
  23.7989520   6.2306490  60.0811320  24.1513340   5.6334620  59.4212690
  22.9151850   5.9050720  60.2519570  19.8852800   6.9904180  57.4881730
  20.5723930   7.5373390  57.8689320  19.0985220   7.5344910  57.5231340
  12.0245200   2.6077000  52.9798810  12.8940050   2.8901800  53.2634730
  11.5335520   3.4212870  52.8647620  19.1880010   3.9950210  57.1007090
  19.6442790   4.8055460  57.3267280  18.8368220   3.6773350  57.9325580
  21.4912620   9.5056550  64.3299390  22.1354840   9.7115930  65.0072810
  21.8542060   8.7444950  63.8770240  22.7644700   7.5088900  63.0476840
  23.4066930   6.8082060  63.1609010  23.2894050   8.2887340  62.8673730
  26.6100420   7.7937520  52.7715980  26.3838000   7.0767960  53.3640620
  26.2196620   7.5449960  51.9337730  24.5382320   8.3083800  66.2512900
  24.8738560   8.8950490  66.9290820  23.6182660   8.1776510  66.4810690
  12.3916450  11.8204380  53.5460440  12.7514090  12.4193720  52.8917710
  12.2508790  12.3664270  54.3195470  26.1916670   5.7109460  54.4330140
  25.9038370   6.1722150  55.2208020  26.9868840   5.2507230  54.7014360
  12.3758310  10.0859240  68.0202840  12.4849430   9.1453980  67.8798230
  11.7238870  10.3513990  67.3716570  20.3670900   8.3575130  69.4200960
  20.0467770   7.6384370  69.9646650  19.6929260   9.0330200  69.4937020
  18.4085070   9.2035580  54.3634110  18.3995170   9.9365270  53.7478620
  17.4883430   8.9567160  54.4561070  14.0091710   4.4250470  55.1080870
  13.4019660   5.1649370  55.1176170  14.4841060   4.5149830  54.2819070
  21.3944670   9.2663820  53.0259300  21.4956650   9.0627810  52.0961280
  20.4946410   9.0122100  53.2307080  20.0362780  11.7850140  57.7206970
  20.2904280  11.7471530  56.7986340  19.0875260  11.6583470  57.7135220
  26.0415360   2.7042020  59.2965480  25.1005500   2.7192250  59.4713170
  26.3559430   1.9177980  59.7425780  16.0197000   4.3861620  52.8569440
  16.7860270   4.2742980  53.4194870  16.0971690   3.6899590  52.2046210
  28.0440940   9.8750870  60.9719740  28.1688360  10.6982040  61.4443550
  28.9106500   9.6641600  60.6243890  15.5158470  11.9682080  60.6436870
  16.2520950  11.4197540  60.9145440  15.8999390  12.8338090  60.5042860
  12.4003950   8.0355650  56.5178380  11.4743730   8.2776790  56.5083790
  12.8660380   8.8629910  56.3963130  14.5216750  11.1528150  69.8322450
  15.3229480  11.4740200  70.2457850  14.0068570  10.7923730  70.5542360
  18.6260780  11.1412390  52.4662440  19.4189390  11.4301220  52.0144230
  18.1065130  10.7104560  51.7874920  23.3581380   7.2608020  69.7797860
  22.7519540   7.2839620  69.0393610  23.0535490   6.5291060  70.3165110
  24.7881750  10.9888310  68.3907270  25.7403500  10.9046330  68.3407510
  24.6409970  11.6530020  69.0641060  27.6790950  10.3682520  53.8899180
  27.3932460   9.9547660  53.0753360  27.4810500  11.2970230  53.7699700
  12.2414560   3.6401610  68.7758500  12.7453580   3.0608890  69.3474730
  11.5021980   3.9241840  69.3134870  19.1438180   6.3615800  52.3304790
  19.0388820   5.7468150  53.0566170  18.9762400   5.8381690  51.5467800
  19.2952500   5.0472600  68.3094020  18.5298170   5.6157600  68.2248690
  19.4768460   4.7548810  67.4162250  22.3840910   5.4235830  52.9346780
  21.8351010   5.8705130  53.5789520  23.0060170   4.9185080  53.4584450
  26.4375850   6.7777930  68.8669040  27.1785320   7.1153690  68.3636500
  25.6748530   6.9469990  68.3138810  14.2737640   1.7831200  69.6708570
  14.3142980   1.4845070  70.5793800  15.1283140   2.1838810  69.5116090
  18.0516030   4.3826750  54.8312080  18.4732450   4.2166620  55.6743470
  18.1766870   3.5726980  54.3367220  20.5643670   3.4064360  52.0789180
  21.0849330   2.6913380  51.7130330  21.2112070   4.0450230  52.3789690
  25.1121510   4.8292760  67.4024250  25.5262530   4.9837840  68.2514670
  24.1772510   4.9547980  67.5650030  25.5843680   2.1688920  69.4063400
  26.1664450   1.4141240  69.3183880  25.7605450   2.6996360  68.6294880
  19.8736740   4.7813240  65.3720180  20.2924850   5.6245970  65.1996420
  18.9545370   4.9185280  65.1426960  22.2100640   2.5129420  66.7558020
  22.3296850   1.9170560  67.4952860  23.0694640   2.5499110  66.3359320
  24.5488540   3.0666610  65.3320530  24.0223760   3.5909230  64.7285670
  24.8919880   3.6994000  65.9630260  17.7244160  11.0866250  66.4877910
  17.1865250  11.8112310  66.1686610  17.9778120  10.6096590  65.6975250
  20.5806370  12.3217460  66.7464560  20.5065070  13.2252600  67.0536930
  19.6785210  12.0029360  66.7186630  21.1291700  11.4875970  54.3690920
  22.0242490  11.8260940  54.3909680  21.1609330  10.7655380  53.7415200
  14.7687860   6.8603020  52.5977920  15.2062730   7.4032690  53.2535500
  15.2535590   6.0349970  52.6074260  11.9833660   9.6492050  60.0498180
  12.3136670   8.7813110  59.8176820  12.4124660   9.8550570  60.8803140
  16.5795580   7.9801060  57.7100150  16.2791120   7.8566030  58.6104060
  16.4733070   7.1209650  57.3015880  12.4723870  10.5162640  62.7879810
  12.0354860  10.6963440  63.6203960  13.0401550  11.2737260  62.6461530
  28.1086050  10.0179640  67.0757120  27.5088040  10.0772200  66.3321040
  28.2379950   9.0784620  67.2053970  29.3487500   7.7597460  52.4126830
  28.5180460   7.8274110  52.8834060  29.5259330   8.6501580  52.1093690
  28.8043960   4.5044940  54.9161030  29.5662870   5.0741590  55.0220720
  28.8198330   3.9372140  55.6869340  12.3048300   3.0282870  59.1468690
  11.6497140   2.7594510  58.5028390  13.1426250   2.9187350  58.6970670
  29.8103930   5.3595040  59.7602960  30.1812760   4.5762360  59.3538930
  30.4505860   6.0484140  59.5820260  26.7937690   6.7431620  65.1733280
  25.9797530   7.1728780  65.4359070  27.2011890   7.3550030  64.5602330
  28.8563130   4.7979310  52.0733550  29.1311970   5.7058190  51.9452770
  28.6673870   4.7341840  53.0095540  28.7528470   2.7348300  57.0662980
  28.3772070   1.9676230  56.6344270  28.0231590   3.1171000  57.5537910
  13.3424230   3.4135440  63.6872030  13.7097270   3.3262840  64.5668050
  12.7735050   2.6501990  63.5878890  28.1428090   1.8819820  66.7002500
  27.9114180   1.6532570  65.8000450  28.4032640   2.8019370  66.6547390
  26.8513740  11.4950220  58.7001550  27.4472810  11.1734790  58.0235970
  27.1091890  11.0222040  59.4914820  14.7576310   7.9268130  68.8492180
  14.7145940   7.5561040  69.7306640  14.8887320   8.8645700  68.9894000
  18.4582340   9.4827720  64.4501900  18.2173700   9.7502280  63.5632420
  19.3984980   9.6533450  64.5052760  29.7186500  11.5022100  65.2512540
  29.2244780  11.8990970  64.5339670  29.1099790  10.8771310  65.6449820
  14.5964340  10.8730380  65.9689960  14.0024660  10.7415080  66.7080000
  14.5888180  10.0368520  65.5032060  27.4025950  12.1445520  62.5299280
  26.9428920  12.8961330  62.1557300  26.7738410  11.4251990  62.4714080
  14.2276570   8.2388760  64.9198000  13.5010630   7.6194050  64.8523950
  14.2885720   8.6329370  64.0496080  17.8321670  10.4533760  61.7047410
  18.3486690   9.8421120  61.1795670  18.4819050  10.9562540  62.1958420
  20.5717170  11.3442250  62.5316390  20.8594980  11.0896550  61.6549400
  21.0840390  10.7919610  63.1221960  12.5106570  11.5563150  58.1294760
  12.3428610  10.9233830  58.8276650  11.6441080  11.7622550  57.7788950
  14.1169270  10.2496380  55.5744900  13.5916890  10.6304410  54.8706860
  14.0413850  10.8747150  56.2954610  20.6389530  12.2658350  69.8984590
  21.5656840  12.0302620  69.9420550  20.6239960  13.0930350  69.4170620
  28.8734590  11.8083920  56.8958840  29.0486780  11.1221660  56.2519760
  28.1756160  12.3330970  56.5035510  16.7162240  12.1978760  54.4494150
  17.4481060  11.9138040  53.9018040  16.9755910  11.9592040  55.3393530
  15.8777030   8.3143490  54.4540480  15.2485910   8.7828590  55.0026310
  15.9924860   7.4692710  54.8886670  27.2067090  11.4928210  69.7225630
  27.9992410  10.9977440  69.5151590  27.5000240  12.1718350  70.3301240
  23.3326750   2.3649150  40.6041680  23.2520800   1.4503760  40.3333390
  22.9191170   2.8616220  39.8981390  21.4644790   4.1428170  42.4850950
  20.6886890   3.6628610  42.7749520  22.1157720   3.4633820  42.3107110
  15.4810620   4.4547980  43.3626710  14.6495500   4.1996690  43.7623220
  16.0891600   4.5258750  44.0984630  25.4852220   8.5488360  41.2650080
  25.0233750   7.7775600  41.5937250  26.2977770   8.5754430  41.7702530
  15.4611880   8.4888070  43.5584730  15.7639920   7.5985810  43.3794950
  16.2055470   9.0458290  43.3306980  11.8535580   2.0155520  43.0308800
  12.4251690   1.2477720  43.0312440  11.8537120   2.3144280  42.1215410
  21.7115530  10.8346370  40.8854070  21.0926970  11.2903870  40.3148510
  22.5667310  10.9897830  40.4843770  20.9053780   6.8185360  42.4921110
  20.8362060   5.8775300  42.3310240  21.6673640   6.9086770  43.0643680
  22.5778880   5.7185610  38.2785980  21.9596150   6.1835060  37.7148700
  23.0902130   6.4113090  38.6955490  17.4410640   5.2461480  44.9569580
  17.1080020   5.8730400  45.5990650  17.6177320   5.7723360  44.1771250
  16.6529740   7.2142280  46.7718760  17.2703740   7.8893360  46.4903210
  15.7922860   7.6230260  46.6806260  11.9462080   6.4042140  35.6525610
  11.5690060   6.8929240  34.9210510  12.2035150   7.0767420  36.2832140
  27.5707330   8.6781690  44.6873400  26.8870850   9.3480800  44.6790070
  28.1101620   8.8762340  43.9218260  25.1066070  10.5225820  43.4018580
  25.1193230  10.1188110  42.5340840  24.5541290  11.2973110  43.2980010
  26.4011490   7.2442040  38.4908750  26.2907820   6.3016370  38.6158170
  26.3979740   7.6057680  39.3771510  24.5051510   5.4255660  44.7301190
  24.9220300   5.2115770  43.8954650  25.2291330   5.6828450  45.3009810
  21.9431770   2.8707360  37.8471240  21.0161050   2.8044740  38.0759710
  22.0956590   3.8087490  37.7326480  28.4513610   3.8242880  44.8217430
  27.6232240   3.8935970  44.3467560  29.0464090   4.4097190  44.3533260
  25.9729060   4.4327660  38.3506490  25.3541480   4.0947210  37.7032790
  25.9553510   3.7887420  39.0585680  17.5488410   3.3972100  40.6290970
  17.1445410   2.6849350  40.1336870  17.6351530   3.0525340  41.5179010
  18.0170110   7.0839660  42.7930180  17.7198400   6.4785130  42.1137960
  18.9669930   7.1216970  42.6819540  26.1055720  10.6571530  46.4553280
  25.6286280  11.4643720  46.2625890  25.4217510  10.0049860  46.6079490
  17.1088540   6.8221350  49.4437980  16.2117070   7.0461320  49.6911380
  17.1341410   6.9456290  48.4949380  24.1493760   3.6714470  35.3579240
  24.5887040   2.8336900  35.2117060  24.8622180   4.3043870  35.4443380
  15.9359760   3.6934670  48.0195350  15.7967530   4.5657470  48.3882750
  15.0541120   3.3507480  47.8743290  22.2589140   8.6110540  39.3260480
  22.6985050   9.3534870  38.9115870  22.1976030   8.8537110  40.2499440
  17.7340110   9.6356370  50.2280500  17.7055540  10.0399320  49.3608930
  17.5705080   8.7066730  50.0652100  14.2493040   2.2917080  38.1297620
  14.1290640   3.0179170  37.5178890  13.9393930   1.5219990  37.6525530
  29.6854930  10.4183470  51.5244670  30.1614650  10.8966360  52.2033750
  30.3062090  10.3500960  50.7990170  11.8878410   5.4632220  43.9366260
  11.9658830   5.5980990  42.9921980  12.5020090   4.7548110  44.1294380
  13.1326040   7.1632410  40.3472440  12.7254120   7.3047000  39.4926040
  14.0239050   6.8792570  40.1443650  22.9504920  11.3124320  47.2539490
  23.4649590  11.2232330  48.0561920  22.1074000  11.6584020  47.5467400
  24.9259320  11.5979660  36.6823490  24.7660460  11.3082600  37.5805320
  24.7606030  10.8219790  36.1468720  17.4047700  11.3778190  38.4595110
  17.2290180  10.4613730  38.2462910  16.5503440  11.7365480  38.6992910
  24.6285450   9.1067220  35.2421490  23.9350610   9.1044510  34.5823770
  25.3708310   8.6826540  34.8115660  24.1935380  10.7329930  39.3169980
  24.6492330   9.9519310  39.6308600  24.5327900  11.4436750  39.8611160
  11.9437930   6.5046390  46.4760720  12.1068970   6.0351750  45.6580090
  12.4090380   5.9969950  47.1409560  22.9288690   1.9918380  43.9647250
  22.1969810   2.5005190  44.3137350  22.5313030   1.1748360  43.6636030
  18.4407730   1.9785800  34.7589800  17.8724630   1.5304050  34.1325710
  19.1496730   2.3378580  34.2254950  13.5176910   5.8797820  48.6356530
  13.1331700   5.2391490  49.2339490  13.8289100   6.5833940  49.2051260
  19.6674050   2.7274360  44.1165150  20.0344180   2.2532930  44.8626490
  19.4779110   3.6015930  44.4573490  17.4573420   1.7683000  46.4349360
  17.1530490   2.6474980  46.6599720  18.4119880   1.8282790  46.4706800
  15.9855210   5.9743990  37.0316210  15.2117470   5.4341610  36.8714930
  16.7149840   5.4550600  36.6933970  26.7443190   4.9709350  42.8242600
  27.4642310   5.4664640  42.4338710  26.5425010   4.2927240  42.1796470
  22.1261990   5.0418410  48.7111600  22.0599300   4.1214080  48.4569190
  21.4967130   5.1393850  49.4256240  16.0292610   5.6424370  40.6695020
  16.5471280   4.8392630  40.6151910  15.5776630   5.5803510  41.5111850
  20.9162110   6.9090650  35.9422320  21.2577810   7.6532880  35.4465640
  20.0874820   7.2221770  36.3047150  13.5137150   2.6085740  47.5820720
  13.1552090   3.2739590  48.1694060  13.2191710   1.7769290  47.9533340
  16.7150270   3.0669980  50.4660270  16.4150410   3.2127160  49.5688090
  17.4861510   2.5075270  50.3733660  22.0578720   7.8638980  48.4615400
  22.0723260   6.9319940  48.2434310  21.3503820   7.9498740  49.1005170
  27.1915790   2.0478800  34.7314010  27.1079510   2.4793020  33.8810450
  27.9109980   2.5077150  35.1640830  28.2689930   4.5046320  47.8083980
  27.5438120   5.0975100  47.6113370  28.7965390   4.4969860  47.0097350
  28.2203040   8.9021060  37.4596140  27.5779200   8.2476680  37.7339860
  27.8333700   9.3076150  36.6836810  23.7989520   6.2306490  41.3067830
  24.1513340   5.6334620  40.6469200  22.9151850   5.9050720  41.4776080
  19.8852800   6.9904180  38.7138240  20.5723930   7.5373390  39.0945830
  19.0985220   7.5344910  38.7487850  12.0245200   2.6077000  34.2055320
  12.8940050   2.8901800  34.4891240  11.5335520   3.4212870  34.0904130
  19.1880010   3.9950210  38.3263600  19.6442790   4.8055460  38.5523790
  18.8368220   3.6773350  39.1582090  21.4912620   9.5056550  45.5555900
  22.1354840   9.7115930  46.2329320  21.8542060   8.7444950  45.1026750
  22.7644700   7.5088900  44.2733350  23.4066930   6.8082060  44.3865520
  23.2894050   8.2887340  44.0930240  26.6100420   7.7937520  33.9972490
  26.3838000   7.0767960  34.5897130  26.2196620   7.5449960  33.1594240
  24.5382320   8.3083800  47.4769410  24.8738560   8.8950490  48.1547330
  23.6182660   8.1776510  47.7067200  12.3916450  11.8204380  34.7716950
  12.7514090  12.4193720  34.1174220  12.2508790  12.3664270  35.5451980
  26.1916670   5.7109460  35.6586650  25.9038370   6.1722150  36.4464530
  26.9868840   5.2507230  35.9270870  12.3758310  10.0859240  49.2459350
  12.4849430   9.1453980  49.1054740  11.7238870  10.3513990  48.5973080
  20.3670900   8.3575130  50.6457470  20.0467770   7.6384370  51.1903160
  19.6929260   9.0330200  50.7193530  18.4085070   9.2035580  35.5890620
  18.3995170   9.9365270  34.9735130  17.4883430   8.9567160  35.6817580
  14.0091710   4.4250470  36.3337380  13.4019660   5.1649370  36.3432680
  14.4841060   4.5149830  35.5075580  21.3944670   9.2663820  34.2515810
  21.4956650   9.0627810  33.3217790  20.4946410   9.0122100  34.4563590
  20.0362780  11.7850140  38.9463480  20.2904280  11.7471530  38.0242850
  19.0875260  11.6583470  38.9391730  26.0415360   2.7042020  40.5221990
  25.1005500   2.7192250  40.6969680  26.3559430   1.9177980  40.9682290
  16.0197000   4.3861620  34.0825950  16.7860270   4.2742980  34.6451380
  16.0971690   3.6899590  33.4302720  28.0440940   9.8750870  42.1976250
  28.1688360  10.6982040  42.6700060  28.9106500   9.6641600  41.8500400
  15.5158470  11.9682080  41.8693380  16.2520950  11.4197540  42.1401950
  15.8999390  12.8338090  41.7299370  12.4003950   8.0355650  37.7434890
  11.4743730   8.2776790  37.7340300  12.8660380   8.8629910  37.6219640
  14.5216750  11.1528150  51.0578960  15.3229480  11.4740200  51.4714360
  14.0068570  10.7923730  51.7798870  18.6260780  11.1412390  33.6918950
  19.4189390  11.4301220  33.2400740  18.1065130  10.7104560  33.0131430
  23.3581380   7.2608020  51.0054370  22.7519540   7.2839620  50.2650120
  23.0535490   6.5291060  51.5421620  24.7881750  10.9888310  49.6163780
  25.7403500  10.9046330  49.5664020  24.6409970  11.6530020  50.2897570
  27.6790950  10.3682520  35.1155690  27.3932460   9.9547660  34.3009870
  27.4810500  11.2970230  34.9956210  12.2414560   3.6401610  50.0015010
  12.7453580   3.0608890  50.5731240  11.5021980   3.9241840  50.5391380
  19.1438180   6.3615800  33.5561300  19.0388820   5.7468150  34.2822680
  18.9762400   5.8381690  32.7724310  19.2952500   5.0472600  49.5350530
  18.5298170   5.6157600  49.4505200  19.4768460   4.7548810  48.6418760
  22.3840910   5.4235830  34.1603290  21.8351010   5.8705130  34.8046030
  23.0060170   4.9185080  34.6840960  26.4375850   6.7777930  50.0925550
  27.1785320   7.1153690  49.5893010  25.6748530   6.9469990  49.5395320
  14.2737640   1.7831200  50.8965080  14.3142980   1.4845070  51.8050310
  15.1283140   2.1838810  50.7372600  18.0516030   4.3826750  36.0568590
  18.4732450   4.2166620  36.8999980  18.1766870   3.5726980  35.5623730
  20.5643670   3.4064360  33.3045690  21.0849330   2.6913380  32.9386840
  21.2112070   4.0450230  33.6046200  25.1121510   4.8292760  48.6280760
  25.5262530   4.9837840  49.4771180  24.1772510   4.9547980  48.7906540
  25.5843680   2.1688920  50.6319910  26.1664450   1.4141240  50.5440390
  25.7605450   2.6996360  49.8551390  19.8736740   4.7813240  46.5976690
  20.2924850   5.6245970  46.4252930  18.9545370   4.9185280  46.3683470
  22.2100640   2.5129420  47.9814530  22.3296850   1.9170560  48.7209370
  23.0694640   2.5499110  47.5615830  24.5488540   3.0666610  46.5577040
  24.0223760   3.5909230  45.9542180  24.8919880   3.6994000  47.1886770
  17.7244160  11.0866250  47.7134420  17.1865250  11.8112310  47.3943120
  17.9778120  10.6096590  46.9231760  20.5806370  12.3217460  47.9721070
  20.5065070  13.2252600  48.2793440  19.6785210  12.0029360  47.9443140
  21.1291700  11.4875970  35.5947430  22.0242490  11.8260940  35.6166190
  21.1609330  10.7655380  34.9671710  14.7687860   6.8603020  33.8234430
  15.2062730   7.4032690  34.4792010  15.2535590   6.0349970  33.8330770
  11.9833660   9.6492050  41.2754690  12.3136670   8.7813110  41.0433330
  12.4124660   9.8550570  42.1059650  16.5795580   7.9801060  38.9356660
  16.2791120   7.8566030  39.8360570  16.4733070   7.1209650  38.5272390
  12.4723870  10.5162640  44.0136320  12.0354860  10.6963440  44.8460470
  13.0401550  11.2737260  43.8718040  28.1086050  10.0179640  48.3013630
  27.5088040  10.0772200  47.5577550  28.2379950   9.0784620  48.4310480
  29.3487500   7.7597460  33.6383340  28.5180460   7.8274110  34.1090570
  29.5259330   8.6501580  33.3350200  28.8043960   4.5044940  36.1417540
  29.5662870   5.0741590  36.2477230  28.8198330   3.9372140  36.9125850
  12.3048300   3.0282870  40.3725200  11.6497140   2.7594510  39.7284900
  13.1426250   2.9187350  39.9227180  29.8103930   5.3595040  40.9859470
  30.1812760   4.5762360  40.5795440  30.4505860   6.0484140  40.8076770
  26.7937690   6.7431620  46.3989790  25.9797530   7.1728780  46.6615580
  27.2011890   7.3550030  45.7858840  28.8563130   4.7979310  33.2990060
  29.1311970   5.7058190  33.1709280  28.6673870   4.7341840  34.2352050
  28.7528470   2.7348300  38.2919490  28.3772070   1.9676230  37.8600780
  28.0231590   3.1171000  38.7794420  13.3424230   3.4135440  44.9128540
  13.7097270   3.3262840  45.7924560  12.7735050   2.6501990  44.8135400
  28.1428090   1.8819820  47.9259010  27.9114180   1.6532570  47.0256960
  28.4032640   2.8019370  47.8803900  26.8513740  11.4950220  39.9258060
  27.4472810  11.1734790  39.2492480  27.1091890  11.0222040  40.7171330
  14.7576310   7.9268130  50.0748690  14.7145940   7.5561040  50.9563150
  14.8887320   8.8645700  50.2150510  18.4582340   9.4827720  45.6758410
  18.2173700   9.7502280  44.7888930  19.3984980   9.6533450  45.7309270
  29.7186500  11.5022100  46.4769050  29.2244780  11.8990970  45.7596180
  29.1099790  10.8771310  46.8706330  14.5964340  10.8730380  47.1946470
  14.0024660  10.7415080  47.9336510  14.5888180  10.0368520  46.7288570
  27.4025950  12.1445520  43.7555790  26.9428920  12.8961330  43.3813810
  26.7738410  11.4251990  43.6970590  14.2276570   8.2388760  46.1454510
  13.5010630   7.6194050  46.0780460  14.2885720   8.6329370  45.2752590
  17.8321670  10.4533760  42.9303920  18.3486690   9.8421120  42.4052180
  18.4819050  10.9562540  43.4214930  20.5717170  11.3442250  43.7572900
  20.8594980  11.0896550  42.8805910  21.0840390  10.7919610  44.3478470
  12.5106570  11.5563150  39.3551270  12.3428610  10.9233830  40.0533160
  11.6441080  11.7622550  39.0045460  14.1169270  10.2496380  36.8001410
  13.5916890  10.6304410  36.0963370  14.0413850  10.8747150  37.5211120
  20.6389530  12.2658350  51.1241100  21.5656840  12.0302620  51.1677060
  20.6239960  13.0930350  50.6427130  28.8734590  11.8083920  38.1215350
  29.0486780  11.1221660  37.4776270  28.1756160  12.3330970  37.7292020
  16.7162240  12.1978760  35.6750660  17.4481060  11.9138040  35.1274550
  16.9755910  11.9592040  36.5650040  15.8777030   8.3143490  35.6796990
  15.2485910   8.7828590  36.2282820  15.9924860   7.4692710  36.1143180
  27.2067090  11.4928210  50.9482140  27.9992410  10.9977440  50.7408100
  27.5000240  12.1718350  51.5557750  23.3326750   2.3649150  21.8298190
  23.2520800   1.4503760  21.5589900  22.9191170   2.8616220  21.1237900
  21.4644790   4.1428170  23.7107460  20.6886890   3.6628610  24.0006030
  22.1157720   3.4633820  23.5363620  15.4810620   4.4547980  24.5883220
  14.6495500   4.1996690  24.9879730  16.0891600   4.5258750  25.3241140
  25.4852220   8.5488360  22.4906590  25.0233750   7.7775600  22.8193760
  26.2977770   8.5754430  22.9959040  15.4611880   8.4888070  24.7841240
  15.7639920   7.5985810  24.6051460  16.2055470   9.0458290  24.5563490
  11.8535580   2.0155520  24.2565310  12.4251690   1.2477720  24.2568950
  11.8537120   2.3144280  23.3471920  21.7115530  10.8346370  22.1110580
  21.0926970  11.2903870  21.5405020  22.5667310  10.9897830  21.7100280
  20.9053780   6.8185360  23.7177620  20.8362060   5.8775300  23.5566750
  21.6673640   6.9086770  24.2900190  22.5778880   5.7185610  19.5042490
  21.9596150   6.1835060  18.9405210  23.0902130   6.4113090  19.9212000
  17.4410640   5.2461480  26.1826090  17.1080020   5.8730400  26.8247160
  17.6177320   5.7723360  25.4027760  16.6529740   7.2142280  27.9975270
  17.2703740   7.8893360  27.7159720  15.7922860   7.6230260  27.9062770
  11.9462080   6.4042140  16.8782120  11.5690060   6.8929240  16.1467020
  12.2035150   7.0767420  17.5088650  27.5707330   8.6781690  25.9129910
  26.8870850   9.3480800  25.9046580  28.1101620   8.8762340  25.1474770
  25.1066070  10.5225820  24.6275090  25.1193230  10.1188110  23.7597350
  24.5541290  11.2973110  24.5236520  26.4011490   7.2442040  19.7165260
  26.2907820   6.3016370  19.8414680  26.3979740   7.6057680  20.6028020
  24.5051510   5.4255660  25.9557700  24.9220300   5.2115770  25.1211160
  25.2291330   5.6828450  26.5266320  21.9431770   2.8707360  19.0727750
  21.0161050   2.8044740  19.3016220  22.0956590   3.8087490  18.9582990
  28.4513610   3.8242880  26.0473940  27.6232240   3.8935970  25.5724070
  29.0464090   4.4097190  25.5789770  25.9729060   4.4327660  19.5763000
  25.3541480   4.0947210  18.9289300  25.9553510   3.7887420  20.2842190
  17.5488410   3.3972100  21.8547480  17.1445410   2.6849350  21.3593380
  17.6351530   3.0525340  22.7435520  18.0170110   7.0839660  24.0186690
  17.7198400   6.4785130  23.3394470  18.9669930   7.1216970  23.9076050
  26.1055720  10.6571530  27.6809790  25.6286280  11.4643720  27.4882400
  25.4217510  10.0049860  27.8336000  17.1088540   6.8221350  30.6694490
  16.2117070   7.0461320  30.9167890  17.1341410   6.9456290  29.7205890
  24.1493760   3.6714470  16.5835750  24.5887040   2.8336900  16.4373570
  24.8622180   4.3043870  16.6699890  15.9359760   3.6934670  29.2451860
  15.7967530   4.5657470  29.6139260  15.0541120   3.3507480  29.0999800
  22.2589140   8.6110540  20.5516990  22.6985050   9.3534870  20.1372380
  22.1976030   8.8537110  21.4755950  17.7340110   9.6356370  31.4537010
  17.7055540  10.0399320  30.5865440  17.5705080   8.7066730  31.2908610
  14.2493040   2.2917080  19.3554130  14.1290640   3.0179170  18.7435400
  13.9393930   1.5219990  18.8782040  29.6854930  10.4183470  32.7501180
  30.1614650  10.8966360  33.4290260  30.3062090  10.3500960  32.0246680
  11.8878410   5.4632220  25.1622770  11.9658830   5.5980990  24.2178490
  12.5020090   4.7548110  25.3550890  13.1326040   7.1632410  21.5728950
  12.7254120   7.3047000  20.7182550  14.0239050   6.8792570  21.3700160
  29.0888180   7.6096320  29.9101190  29.2151240   7.3708200  28.9918370
  29.1309560   6.7780860  30.3823270  22.9504920  11.3124320  28.4796000
  23.4649590  11.2232330  29.2818430  22.1074000  11.6584020  28.7723910
  24.9259320  11.5979660  17.9080000  24.7660460  11.3082600  18.8061830
  24.7606030  10.8219790  17.3725230  17.4047700  11.3778190  19.6851620
  17.2290180  10.4613730  19.4719420  16.5503440  11.7365480  19.9249420
  24.6285450   9.1067220  16.4678000  23.9350610   9.1044510  15.8080280
  25.3708310   8.6826540  16.0372170  24.1935380  10.7329930  20.5426490
  24.6492330   9.9519310  20.8565110  24.5327900  11.4436750  21.0867670
  11.9437930   6.5046390  27.7017230  12.1068970   6.0351750  26.8836600
  12.4090380   5.9969950  28.3666070  22.9288690   1.9918380  25.1903760
  22.1969810   2.5005190  25.5393860  22.5313030   1.1748360  24.8892540
  18.4407730   1.9785800  15.9846310  17.8724630   1.5304050  15.3582220
  19.1496730   2.3378580  15.4511460  13.5176910   5.8797820  29.8613040
  13.1331700   5.2391490  30.4596000  13.8289100   6.5833940  30.4307770
  19.6674050   2.7274360  25.3421660  20.0344180   2.2532930  26.0883000
  19.4779110   3.6015930  25.6830000  17.4573420   1.7683000  27.6605870
  17.1530490   2.6474980  27.8856230  18.4119880   1.8282790  27.6963310
  15.9855210   5.9743990  18.2572720  15.2117470   5.4341610  18.0971440
  16.7149840   5.4550600  17.9190480  26.7443190   4.9709350  24.0499110
  27.4642310   5.4664640  23.6595220  26.5425010   4.2927240  23.4052980
  22.1261990   5.0418410  29.9368110  22.0599300   4.1214080  29.6825700
  21.4967130   5.1393850  30.6512750  16.0292610   5.6424370  21.8951530
  16.5471280   4.8392630  21.8408420  15.5776630   5.5803510  22.7368360
  20.9162110   6.9090650  17.1678830  21.2577810   7.6532880  16.6722150
  20.0874820   7.2221770  17.5303660  13.5137150   2.6085740  28.8077230
  13.1552090   3.2739590  29.3950570  13.2191710   1.7769290  29.1789850
  16.7150270   3.0669980  31.6916780  16.4150410   3.2127160  30.7944600
  17.4861510   2.5075270  31.5990170  22.0578720   7.8638980  29.6871910
  22.0723260   6.9319940  29.4690820  21.3503820   7.9498740  30.3261680
  27.1915790   2.0478800  15.9570520  27.1079510   2.4793020  15.1066960
  27.9109980   2.5077150  16.3897340  28.2689930   4.5046320  29.0340490
  27.5438120   5.0975100  28.8369880  28.7965390   4.4969860  28.2353860
  28.2203040   8.9021060  18.6852650  27.5779200   8.2476680  18.9596370
  27.8333700   9.3076150  17.9093320  23.7989520   6.2306490  22.5324340
  24.1513340   5.6334620  21.8725710  22.9151850   5.9050720  22.7032590
  19.8852800   6.9904180  19.9394750  20.5723930   7.5373390  20.3202340
  19.0985220   7.5344910  19.9744360  12.0245200   2.6077000  15.4311830
  12.8940050   2.8901800  15.7147750  11.5335520   3.4212870  15.3160640
  19.1880010   3.9950210  19.5520110  19.6442790   4.8055460  19.7780300
  18.8368220   3.6773350  20.3838600  21.4912620   9.5056550  26.7812410
  22.1354840   9.7115930  27.4585830  21.8542060   8.7444950  26.3283260
  22.7644700   7.5088900  25.4989860  23.4066930   6.8082060  25.6122030
  23.2894050   8.2887340  25.3186750  26.6100420   7.7937520  15.2229000
  26.3838000   7.0767960  15.8153640  26.2196620   7.5449960  14.3850750
  24.5382320   8.3083800  28.7025920  24.8738560   8.8950490  29.3803840
  23.6182660   8.1776510  28.9323710  12.3916450  11.8204380  15.9973460
  12.7514090  12.4193720  15.3430730  12.2508790  12.3664270  16.7708490
  26.1916670   5.7109460  16.8843160  25.9038370   6.1722150  17.6721040
  26.9868840   5.2507230  17.1527380  12.3758310  10.0859240  30.4715860
  12.4849430   9.1453980  30.3311250  11.7238870  10.3513990  29.8229590
  20.3670900   8.3575130  31.8713980  20.0467770   7.6384370  32.4159670
  19.6929260   9.0330200  31.9450040  18.4085070   9.2035580  16.8147130
  18.3995170   9.9365270  16.1991640  17.4883430   8.9567160  16.9074090
  14.0091710   4.4250470  17.5593890  13.4019660   5.1649370  17.5689190
  14.4841060   4.5149830  16.7332090  21.3944670   9.2663820  15.4772320
  21.4956650   9.0627810  14.5474300  20.4946410   9.0122100  15.6820100
  20.0362780  11.7850140  20.1719990  20.2904280  11.7471530  19.2499360
  19.0875260  11.6583470  20.1648240  26.0415360   2.7042020  21.7478500
  25.1005500   2.7192250  21.9226190  26.3559430   1.9177980  22.1938800
  16.0197000   4.3861620  15.3082460  16.7860270   4.2742980  15.8707890
  16.0971690   3.6899590  14.6559230  28.0440940   9.8750870  23.4232760
  28.1688360  10.6982040  23.8956570  28.9106500   9.6641600  23.0756910
  15.5158470  11.9682080  23.0949890  16.2520950  11.4197540  23.3658460
  15.8999390  12.8338090  22.9555880  12.4003950   8.0355650  18.9691400
  11.4743730   8.2776790  18.9596810  12.8660380   8.8629910  18.8476150
  14.5216750  11.1528150  32.2835470  15.3229480  11.4740200  32.6970870
  14.0068570  10.7923730  33.0055380  18.6260780  11.1412390  14.9175460
  19.4189390  11.4301220  14.4657250  18.1065130  10.7104560  14.2387940
  23.3581380   7.2608020  32.2310880  22.7519540   7.2839620  31.4906630
  23.0535490   6.5291060  32.7678130  24.7881750  10.9888310  30.8420290
  25.7403500  10.9046330  30.7920530  24.6409970  11.6530020  31.5154080
  27.6790950  10.3682520  16.3412200  27.3932460   9.9547660  15.5266380
  27.4810500  11.2970230  16.2212720  12.2414560   3.6401610  31.2271520
  12.7453580   3.0608890  31.7987750  11.5021980   3.9241840  31.7647890
  19.1438180   6.3615800  14.7817810  19.0388820   5.7468150  15.5079190
  18.9762400   5.8381690  13.9980820  19.2952500   5.0472600  30.7607040
  18.5298170   5.6157600  30.6761710  19.4768460   4.7548810  29.8675270
  22.3840910   5.4235830  15.3859800  21.8351010   5.8705130  16.0302540
  23.0060170   4.9185080  15.9097470  26.4375850   6.7777930  31.3182060
  27.1785320   7.1153690  30.8149520  25.6748530   6.9469990  30.7651830
  14.2737640   1.7831200  32.1221590  14.3142980   1.4845070  33.0306820
  15.1283140   2.1838810  31.9629110  18.0516030   4.3826750  17.2825100
  18.4732450   4.2166620  18.1256490  18.1766870   3.5726980  16.7880240
  20.5643670   3.4064360  14.5302200  21.0849330   2.6913380  14.1643350
  21.2112070   4.0450230  14.8302710  25.1121510   4.8292760  29.8537270
  25.5262530   4.9837840  30.7027690  24.1772510   4.9547980  30.0163050
  25.5843680   2.1688920  31.8576420  26.1664450   1.4141240  31.7696900
  25.7605450   2.6996360  31.0807900  19.8736740   4.7813240  27.8233200
  20.2924850   5.6245970  27.6509440  18.9545370   4.9185280  27.5939980
  22.2100640   2.5129420  29.2071040  22.3296850   1.9170560  29.9465880
  23.0694640   2.5499110  28.7872340  24.5488540   3.0666610  27.7833550
  24.0223760   3.5909230  27.1798690  24.8919880   3.6994000  28.4143280
  17.7244160  11.0866250  28.9390930  17.1865250  11.8112310  28.6199630
  17.9778120  10.6096590  28.1488270  20.5806370  12.3217460  29.1977580
  20.5065070  13.2252600  29.5049950  19.6785210  12.0029360  29.1699650
  21.1291700  11.4875970  16.8203940  22.0242490  11.8260940  16.8422700
  21.1609330  10.7655380  16.1928220  14.7687860   6.8603020  15.0490940
  15.2062730   7.4032690  15.7048520  15.2535590   6.0349970  15.0587280
  11.9833660   9.6492050  22.5011200  12.3136670   8.7813110  22.2689840
  12.4124660   9.8550570  23.3316160  16.5795580   7.9801060  20.1613170
  16.2791120   7.8566030  21.0617080  16.4733070   7.1209650  19.7528900
  12.4723870  10.5162640  25.2392830  12.0354860  10.6963440  26.0716980
  13.0401550  11.2737260  25.0974550  28.1086050  10.0179640  29.5270140
  27.5088040  10.0772200  28.7834060  28.2379950   9.0784620  29.6566990
  29.3487500   7.7597460  14.8639850  28.5180460   7.8274110  15.3347080
  29.5259330   8.6501580  14.5606710  28.8043960   4.5044940  17.3674050
  29.5662870   5.0741590  17.4733740  28.8198330   3.9372140  18.1382360
  12.3048300   3.0282870  21.5981710  11.6497140   2.7594510  20.9541410
  13.1426250   2.9187350  21.1483690  29.8103930   5.3595040  22.2115980
  30.1812760   4.5762360  21.8051950  30.4505860   6.0484140  22.0333280
  26.7937690   6.7431620  27.6246300  25.9797530   7.1728780  27.8872090
  27.2011890   7.3550030  27.0115350  28.8563130   4.7979310  14.5246570
  29.1311970   5.7058190  14.3965790  28.6673870   4.7341840  15.4608560
  28.7528470   2.7348300  19.5176000  28.3772070   1.9676230  19.0857290
  28.0231590   3.1171000  20.0050930  13.3424230   3.4135440  26.1385050
  13.7097270   3.3262840  27.0181070  12.7735050   2.6501990  26.0391910
  28.1428090   1.8819820  29.1515520  27.9114180   1.6532570  28.2513470
  28.4032640   2.8019370  29.1060410  26.8513740  11.4950220  21.1514570
  27.4472810  11.1734790  20.4748990  27.1091890  11.0222040  21.9427840
  14.7576310   7.9268130  31.3005200  14.7145940   7.5561040  32.1819660
  14.8887320   8.8645700  31.4407020  18.4582340   9.4827720  26.9014920
  18.2173700   9.7502280  26.0145440  19.3984980   9.6533450  26.9565780
  29.7186500  11.5022100  27.7025560  29.2244780  11.8990970  26.9852690
  29.1099790  10.8771310  28.0962840  14.5964340  10.8730380  28.4202980
  14.0024660  10.7415080  29.1593020  14.5888180  10.0368520  27.9545080
  27.4025950  12.1445520  24.9812300  26.9428920  12.8961330  24.6070320
  26.7738410  11.4251990  24.9227100  14.2276570   8.2388760  27.3711020
  13.5010630   7.6194050  27.3036970  14.2885720   8.6329370  26.5009100
  17.8321670  10.4533760  24.1560430  18.3486690   9.8421120  23.6308690
  18.4819050  10.9562540  24.6471440  20.5717170  11.3442250  24.9829410
  20.8594980  11.0896550  24.1062420  21.0840390  10.7919610  25.5734980
  12.5106570  11.5563150  20.5807780  12.3428610  10.9233830  21.2789670
  11.6441080  11.7622550  20.2301970  14.1169270  10.2496380  18.0257920
  13.5916890  10.6304410  17.3219880  14.0413850  10.8747150  18.7467630
  20.6389530  12.2658350  32.3497610  21.5656840  12.0302620  32.3933570
  20.6239960  13.0930350  31.8683640  28.8734590  11.8083920  19.3471860
  29.0486780  11.1221660  18.7032780  28.1756160  12.3330970  18.9548530
  16.7162240  12.1978760  16.9007170  17.4481060  11.9138040  16.3531060
  16.9755910  11.9592040  17.7906550  15.8777030   8.3143490  16.9053500
  15.2485910   8.7828590  17.4539330  15.9924860   7.4692710  17.3399690
  27.2067090  11.4928210  32.1738650  27.9992410  10.9977440  31.9664610
  27.5000240  12.1718350  32.7814260  23.3326750   2.3649150   3.0554700
  23.2520800   1.4503760   2.7846410  22.9191170   2.8616220   2.3494410
  21.4644790   4.1428170   4.9363970  20.6886890   3.6628610   5.2262540
  22.1157720   3.4633820   4.7620130  15.4810620   4.4547980   5.8139730
  14.6495500   4.1996690   6.2136240  16.0891600   4.5258750   6.5497650
  25.4852220   8.5488360   3.7163100  25.0233750   7.7775600   4.0450270
  26.2977770   8.5754430   4.2215550  15.4611880   8.4888070   6.0097750
  15.7639920   7.5985810   5.8307970  16.2055470   9.0458290   5.7820000
  11.8535580   2.0155520   5.4821820  12.4251690   1.2477720   5.4825460
  11.8537120   2.3144280   4.5728430  21.7115530  10.8346370   3.3367090
  21.0926970  11.2903870   2.7661530  22.5667310  10.9897830   2.9356790
  20.9053780   6.8185360   4.9434130  20.8362060   5.8775300   4.7823260
  21.6673640   6.9086770   5.5156700  17.4410640   5.2461480   7.4082600
  17.1080020   5.8730400   8.0503670  17.6177320   5.7723360   6.6284270
  16.6529740   7.2142280   9.2231780  17.2703740   7.8893360   8.9416230
  15.7922860   7.6230260   9.1319280  27.5707330   8.6781690   7.1386420
  26.8870850   9.3480800   7.1303090  28.1101620   8.8762340   6.3731280
  25.1066070  10.5225820   5.8531600  25.1193230  10.1188110   4.9853860
  24.5541290  11.2973110   5.7493030  24.5051510   5.4255660   7.1814210
  24.9220300   5.2115770   6.3467670  25.2291330   5.6828450   7.7522830
  28.4513610   3.8242880   7.2730450  27.6232240   3.8935970   6.7980580
  29.0464090   4.4097190   6.8046280  17.5488410   3.3972100   3.0803990
  17.1445410   2.6849350   2.5849890  17.6351530   3.0525340   3.9692030
  18.0170110   7.0839660   5.2443200  17.7198400   6.4785130   4.5650980
  18.9669930   7.1216970   5.1332560  26.1055720  10.6571530   8.9066300
  25.6286280  11.4643720   8.7138910  25.4217510  10.0049860   9.0592510
  17.1088540   6.8221350  11.8951000  16.2117070   7.0461320  12.1424400
  17.1341410   6.9456290  10.9462400  15.9359760   3.6934670  10.4708370
  15.7967530   4.5657470  10.8395770  15.0541120   3.3507480  10.3256310
  17.7340110   9.6356370  12.6793520  17.7055540  10.0399320  11.8121950
  17.5705080   8.7066730  12.5165120  29.6854930  10.4183470  13.9757690
  30.1614650  10.8966360  14.6546770  30.3062090  10.3500960  13.2503190
  11.8878410   5.4632220   6.3879280  11.9658830   5.5980990   5.4435000
  12.5020090   4.7548110   6.5807400  13.1326040   7.1632410   2.7985460
  12.7254120   7.3047000   1.9439060  14.0239050   6.8792570   2.5956670
  29.0888180   7.6096320  11.1357700  29.2151240   7.3708200  10.2174880
  29.1309560   6.7780860  11.6079780  22.9504920  11.3124320   9.7052510
  23.4649590  11.2232330  10.5074940  22.1074000  11.6584020   9.9980420
  24.1935380  10.7329930   1.7683000  24.6492330   9.9519310   2.0821620
  24.5327900  11.4436750   2.3124180  11.9437930   6.5046390   8.9273740
  12.1068970   6.0351750   8.1093110  12.4090380   5.9969950   9.5922580
  22.9288690   1.9918380   6.4160270  22.1969810   2.5005190   6.7650370
  22.5313030   1.1748360   6.1149050  13.5176910   5.8797820  11.0869550
  13.1331700   5.2391490  11.6852510  13.8289100   6.5833940  11.6564280
  19.6674050   2.7274360   6.5678170  20.0344180   2.2532930   7.3139510
  19.4779110   3.6015930   6.9086510  17.4573420   1.7683000   8.8862380
  17.1530490   2.6474980   9.1112740  18.4119880   1.8282790   8.9219820
  26.7443190   4.9709350   5.2755620  27.4642310   5.4664640   4.8851730
  26.5425010   4.2927240   4.6309490  22.1261990   5.0418410  11.1624620
  22.0599300   4.1214080  10.9082210  21.4967130   5.1393850  11.8769260
  16.0292610   5.6424370   3.1208040  16.5471280   4.8392630   3.0664930
  15.5776630   5.5803510   3.9624870  13.5137150   2.6085740  10.0333740
  13.1552090   3.2739590  10.6207080  13.2191710   1.7769290  10.4046360
  16.7150270   3.0669980  12.9173290  16.4150410   3.2127160  12.0201110
  17.4861510   2.5075270  12.8246680  22.0578720   7.8638980  10.9128420
  22.0723260   6.9319940  10.6947330  21.3503820   7.9498740  11.5518190
  28.2689930   4.5046320  10.2597000  27.5438120   5.0975100  10.0626390
  28.7965390   4.4969860   9.4610370  23.7989520   6.2306490   3.7580850
  24.1513340   5.6334620   3.0982220  22.9151850   5.9050720   3.9289100
  21.4912620   9.5056550   8.0068920  22.1354840   9.7115930   8.6842340
  21.8542060   8.7444950   7.5539770  22.7644700   7.5088900   6.7246370
  23.4066930   6.8082060   6.8378540  23.2894050   8.2887340   6.5443260
  24.5382320   8.3083800   9.9282430  24.8738560   8.8950490  10.6060350
  23.6182660   8.1776510  10.1580220  12.3758310  10.0859240  11.6972370
  12.4849430   9.1453980  11.5567760  11.7238870  10.3513990  11.0486100
  20.3670900   8.3575130  13.0970490  20.0467770   7.6384370  13.6416180
  19.6929260   9.0330200  13.1706550  26.0415360   2.7042020   2.9735010
  25.1005500   2.7192250   3.1482700  26.3559430   1.9177980   3.4195310
  28.0440940   9.8750870   4.6489270  28.1688360  10.6982040   5.1213080
  28.9106500   9.6641600   4.3013420  15.5158470  11.9682080   4.3206400
  16.2520950  11.4197540   4.5914970  15.8999390  12.8338090   4.1812390
  14.5216750  11.1528150  13.5091980  15.3229480  11.4740200  13.9227380
  14.0068570  10.7923730  14.2311890  23.3581380   7.2608020  13.4567390
  22.7519540   7.2839620  12.7163140  23.0535490   6.5291060  13.9934640
  24.7881750  10.9888310  12.0676800  25.7403500  10.9046330  12.0177040
  24.6409970  11.6530020  12.7410590  12.2414560   3.6401610  12.4528030
  12.7453580   3.0608890  13.0244260  11.5021980   3.9241840  12.9904400
  19.2952500   5.0472600  11.9863550  18.5298170   5.6157600  11.9018220
  19.4768460   4.7548810  11.0931780  26.4375850   6.7777930  12.5438570
  27.1785320   7.1153690  12.0406030  25.6748530   6.9469990  11.9908340
  14.2737640   1.7831200  13.3478100  14.3142980   1.4845070  14.2563330
  15.1283140   2.1838810  13.1885620  25.1121510   4.8292760  11.0793780
  25.5262530   4.9837840  11.9284200  24.1772510   4.9547980  11.2419560
  25.5843680   2.1688920  13.0832930  26.1664450   1.4141240  12.9953410
  25.7605450   2.6996360  12.3064410  19.8736740   4.7813240   9.0489710
  20.2924850   5.6245970   8.8765950  18.9545370   4.9185280   8.8196490
  22.2100640   2.5129420  10.4327550  22.3296850   1.9170560  11.1722390
  23.0694640   2.5499110  10.0128850  24.5488540   3.0666610   9.0090060
  24.0223760   3.5909230   8.4055200  24.8919880   3.6994000   9.6399790
  17.7244160  11.0866250  10.1647440  17.1865250  11.8112310   9.8456140
  17.9778120  10.6096590   9.3744780  20.5806370  12.3217460  10.4234090
  20.5065070  13.2252600  10.7306460  19.6785210  12.0029360  10.3956160
  11.9833660   9.6492050   3.7267710  12.3136670   8.7813110   3.4946350
  12.4124660   9.8550570   4.5572670  12.4723870  10.5162640   6.4649340
  12.0354860  10.6963440   7.2973490  13.0401550  11.2737260   6.3231060
  28.1086050  10.0179640  10.7526650  27.5088040  10.0772200  10.0090570
  28.2379950   9.0784620  10.8823500  12.3048300   3.0282870   2.8238220
  11.6497140   2.7594510   2.1797920  13.1426250   2.9187350   2.3740200
  29.8103930   5.3595040   3.4372490  30.1812760   4.5762360   3.0308460
  30.4505860   6.0484140   3.2589790  26.7937690   6.7431620   8.8502810
  25.9797530   7.1728780   9.1128600  27.2011890   7.3550030   8.2371860
  13.3424230   3.4135440   7.3641560  13.7097270   3.3262840   8.2437580
  12.7735050   2.6501990   7.2648420  28.1428090   1.8819820  10.3772030
  27.9114180   1.6532570   9.4769980  28.4032640   2.8019370  10.3316920
  14.7576310   7.9268130  12.5261710  14.7145940   7.5561040  13.4076170
  14.8887320   8.8645700  12.6663530  18.4582340   9.4827720   8.1271430
  18.2173700   9.7502280   7.2401950  19.3984980   9.6533450   8.1822290
  29.7186500  11.5022100   8.9282070  29.2244780  11.8990970   8.2109200
  29.1099790  10.8771310   9.3219350  14.5964340  10.8730380   9.6459490
  14.0024660  10.7415080  10.3849530  14.5888180  10.0368520   9.1801590
  27.4025950  12.1445520   6.2068810  26.9428920  12.8961330   5.8326830
  26.7738410  11.4251990   6.1483610  14.2276570   8.2388760   8.5967530
  13.5010630   7.6194050   8.5293480  14.2885720   8.6329370   7.7265610
  17.8321670  10.4533760   5.3816940  18.3486690   9.8421120   4.8565200
  18.4819050  10.9562540   5.8727950  20.5717170  11.3442250   6.2085920
  20.8594980  11.0896550   5.3318930  21.0840390  10.7919610   6.7991490
  20.6389530  12.2658350  13.5754120  21.5656840  12.0302620  13.6190080
  20.6239960  13.0930350  13.0940150  27.2067090  11.4928210  13.3995160
  27.9992410  10.9977440  13.1921120  27.5000240  12.1718350  14.0070770
   4.5583260  77.4623110  96.9272150   4.4777310  76.5477720  96.6563860
   4.1447680  77.9590180  96.2211860   2.6901300  79.2402130  98.8081420
   1.9143400  78.7602570  99.0979990   3.3414230  78.5607780  98.6337580
   3.1615460  74.7229700  99.0420510   3.5380280  73.8501580  98.9294180
   3.0634970  75.0588400  98.1510950   6.9439580  72.2180140  95.9748850
   7.7649200  71.7276710  96.0174330   6.9773660  72.8077800  96.7280690
   7.1801060  74.1580520  98.7476390   6.4756630  74.4465410  99.3279500
   7.5413220  74.9680630  98.3875950  10.2487980  73.6035310  99.1385600
   9.3012890  73.6374290  99.2701030  10.5737970  74.4174260  99.5234960
   3.1688280  77.9681320  94.1701710   2.2417560  77.9018700  94.3990180
   3.3213100  78.9061450  94.0556950   3.1557360  74.2398320  91.1668870
   2.2161030  74.4012280  91.2521330   3.4740620  74.9584000  90.6204860
   9.6770120  78.9216840 101.1447900   8.8488750  78.9909930 100.6698030
  10.2720600  79.5071150 100.6763730   7.1985570  79.5301620  94.6736960
   6.5797990  79.1921170  94.0263260   7.1810020  78.8861380  95.3816150
   5.3750270  78.7688430  91.6809710   5.8143550  77.9310860  91.5347530
   6.0878690  79.4017830  91.7673850   8.9567410  70.0231240  89.9950750
   8.6440070  70.1158070  90.8949820   9.7179880  70.6012270  89.9448180
   4.9625190  75.8623050  94.1623660   4.3634080  76.5858850  93.9787280
   5.5104800  75.7999830  93.3800110   3.5690060  74.4986590  96.1926940
   3.9619630  74.8158790  95.3795630   3.9306910  73.6198470  96.3071460
   4.1545200  77.0892340 100.2877720   3.4226320  77.5979150 100.6367820
   3.7569540  76.2722320  99.9866500   4.6171110  72.5426020  99.7000660
   4.6343850  72.9934670 100.5442510   4.3686690  71.6431660  99.9134100
   3.4309640  71.4621270  93.2902460   2.6174250  70.9634440  93.2147770
   3.2371590  72.3019520  92.8738810   6.1458030  75.8340920  91.5864620
   7.0337650  76.1458150  91.4115960   6.1163120  74.9613170  91.1945200
   8.4172300  77.1452760  91.0544480   8.3336020  77.5766980  90.2040920
   9.1366490  77.6051110  91.4871300   8.1743040  72.6432190  93.1412300
   7.5456200  72.7477860  92.4270530   7.6794960  72.8628970  93.9306180
   4.1742500  71.6468800  95.9965970   4.0510280  71.6654930  95.0475480
   5.1227060  71.6947740  96.1164370   7.2671870  77.8015980  96.8452460
   6.3262010  77.8166210  97.0200150   7.5815940  77.0151940  97.2912760
   1.7900180  78.5038320  89.6276160   2.3105840  77.7887340  89.2617310
   2.4368580  79.1424190  89.9276670   5.6519750  70.3642170  91.8544100
   5.9322040  69.5210070  92.2103520   4.8785480  70.5965280  92.3682850
  10.0300470  79.6018900  92.4648010  10.7919380  80.1715550  92.5707700
  10.0454840  79.0346100  93.2356320   6.4795250  72.9198120  90.9174160
   6.8980130  72.7329100  90.0770820   6.1731310  72.0677170  91.2277090
   9.9784980  77.8322260  94.6149960   9.6028580  77.0650190  94.1831250
   9.2488100  78.2144960  95.1024890   9.2535940  76.0579750  97.9157200
   9.7773420  75.5642400  97.2847370   9.8395360  76.1930110  98.6604770
   9.4325660  76.1419620 101.4376750   8.4828370  76.1083160 101.5521740
   9.6138670  77.0519730 101.2026520   8.7435910  75.3153100  93.8549610
   9.2395030  75.0823970  94.6398490   8.5451980  74.4764940  93.4387250
  10.1723070  73.9514050  96.3887290  10.0622350  73.7970090  97.3269560
  10.9330660  73.4234990  96.1462700  11.0613340  71.7821970  89.6293430
  11.9862650  71.6503150  89.4211720  11.0389130  71.8614790  90.5829880
  11.1351830  72.5532630  92.2550140  10.3403330  72.4877750  92.7843050
  11.3395110  73.4883270  92.2435490   3.0150690  70.1806410 100.6599880
   2.2322480  70.6551910 100.9396640   2.7213620  69.2761240 100.5513060
   7.5671760  70.8829510  98.7048970   8.0079850  70.8274610  97.8570570
   7.2979350  71.7987520  98.7759150   9.4310330  70.5144750  96.7157790
   9.3698730  69.5705970  96.5688810  10.2102360  70.6224840  97.2611250
   5.4029890  69.2635610  97.4098980   6.0059260  69.8355820  97.8847500
   4.6622880  69.8275050  97.1872880   8.5464490  69.6657170  92.6839260
   8.7415120  70.5640620  92.9506690   7.7594360  69.4344250  93.1772210
   4.5583260  77.4623110  78.1528660   4.4777310  76.5477720  77.8820370
   4.1447680  77.9590180  77.4468370   2.6901300  79.2402130  80.0337930
   1.9143400  78.7602570  80.3236500   3.3414230  78.5607780  79.8594090
   3.1615460  74.7229700  80.2677020   3.5380280  73.8501580  80.1550690
   3.0634970  75.0588400  79.3767460   6.9439580  72.2180140  77.2005360
   7.7649200  71.7276710  77.2430840   6.9773660  72.8077800  77.9537200
  11.2339130  74.2346890  83.7648990  10.5291300  74.6228600  83.2464100
  11.4997050  74.9297180  84.3669920   7.1801060  74.1580520  79.9732900
   6.4756630  74.4465410  80.5536010   7.5413220  74.9680630  79.6132460
  10.2487980  73.6035310  80.3642110   9.3012890  73.6374290  80.4957540
  10.5737970  74.4174260  80.7491470   3.1688280  77.9681320  75.3958220
   2.2417560  77.9018700  75.6246690   3.3213100  78.9061450  75.2813460
   3.1557360  74.2398320  72.3925380   2.2161030  74.4012280  72.4777840
   3.4740620  74.9584000  71.8461370   9.6770120  78.9216840  82.3704410
   8.8488750  78.9909930  81.8954540  10.2720600  79.5071150  81.9020240
   7.1985570  79.5301620  75.8993470   6.5797990  79.1921170  75.2519770
   7.1810020  78.8861380  76.6072660   6.6412130  75.7086160  83.3159280
   6.2283310  76.5339870  83.5699270   5.9088080  75.1231200  83.1235640
   5.3750270  78.7688430  72.9066220   5.8143550  77.9310860  72.7604040
   6.0878690  79.4017830  72.9930360   8.9567410  70.0231240  71.2207260
   8.6440070  70.1158070  72.1206330   9.7179880  70.6012270  71.1704690
  10.1668700  74.7602740  87.1981400   9.5512970  75.2682410  86.6696860
   9.8465120  73.8601070  87.1407340   2.2283020  73.5994630  84.6643590
   1.7662390  73.8077650  85.4763530   1.8261130  72.7853980  84.3614260
   7.2287530  74.8203580  85.7940250   6.3781120  74.5209330  86.1149320
   7.0689320  75.0645590  84.8824070   4.3237240  76.3205330  87.8939040
   4.6490650  75.4869080  87.5541270   5.1117570  76.8433850  88.0417370
   4.9625190  75.8623050  75.3880170   4.3634080  76.5858850  75.2043790
   5.5104800  75.7999830  74.6056620   3.5690060  74.4986590  77.4183450
   3.9619630  74.8158790  76.6052140   3.9306910  73.6198470  77.5327970
   1.8782230  73.2493900  88.6780310   1.1880550  73.0566100  89.3126400
   2.6214530  73.5328540  89.2104610   4.1545200  77.0892340  81.5134230
   3.4226320  77.5979150  81.8624330   3.7569540  76.2722320  81.2123010
   4.6171110  72.5426020  80.9257170   4.6343850  72.9934670  81.7699020
   4.3686690  71.6431660  81.1390610   8.0441860  69.9558200  86.7643550
   8.3687630  69.2247860  87.2901530   8.0798370  69.6371840  85.8624540
   3.4309640  71.4621270  74.5158970   2.6174250  70.9634440  74.4404280
   3.2371590  72.3019520  74.0995320   3.3518500  80.1392370  86.2598580
   3.2855810  79.2188040  86.0056170   2.7223640  80.2367810  86.9743220
   6.1458030  75.8340920  72.8121130   7.0337650  76.1458150  72.6372470
   6.1163120  74.9613170  72.4201710   8.4172300  77.1452760  72.2800990
   8.3336020  77.5766980  71.4297430   9.1366490  77.6051110  72.7127810
   9.4946440  79.6020280  85.3570960   8.7694630  80.1949060  85.1600350
  10.0221900  79.5943820  84.5584330   4.8081010  73.6875250  83.5581250
   5.1761830  72.8670460  83.8860820   3.9479210  73.7477140  83.9736900
   8.1743040  72.6432190  74.3668810   7.5456200  72.7477860  73.6527040
   7.6794960  72.8628970  75.1562690   1.7683000  76.3414840  83.7819220
   2.2668250  76.8160660  84.4471070   1.9105950  75.4178360  83.9889250
   4.1742500  71.6468800  77.2222480   4.0510280  71.6654930  76.2731990
   5.1227060  71.6947740  77.3420880   8.9749860  72.5582800  84.6247610
   8.4723460  73.2988200  84.9641420   9.7906520  72.9466800  84.3084400
   7.2671870  77.8015980  78.0708970   6.3262010  77.8166210  78.2456660
   7.5815940  77.0151940  78.5169270   1.7900180  78.5038320  70.8532670
   2.3105840  77.7887340  70.4873820   2.4368580  79.1424190  71.1533180
   6.3378020  79.9266720  86.1767740   6.7519040  80.0811800  87.0258160
   5.4029020  80.0521940  86.3393520   6.8100190  77.2662880  88.1806890
   7.3920960  76.5115200  88.0927370   6.9861960  77.7970320  87.4038370
   3.4357150  77.6103380  85.5301510   3.5553360  77.0144520  86.2696350
   4.2951150  77.6473070  85.1102810   5.7745050  78.1640570  84.1064020
   5.2480270  78.6883190  83.5029160   6.1176390  78.7967960  84.7373750
   5.0219350  73.7690540  87.0210350   4.3334870  73.1072080  86.9560340
   5.7425370  73.3228810  87.4658810   5.6519750  70.3642170  73.0800610
   5.9322040  69.5210070  73.4360030   4.8785480  70.5965280  73.5939360
  10.0300470  79.6018900  73.6904520  10.7919380  80.1715550  73.7964210
  10.0454840  79.0346100  74.4612830   6.4795250  72.9198120  72.1430670
   6.8980130  72.7329100  71.3027330   6.1731310  72.0677170  72.4533600
   9.9784980  77.8322260  75.8406470   9.6028580  77.0650190  75.4087760
   9.2488100  78.2144960  76.3281400   9.3684600  76.9793780  85.4745990
   9.1370690  76.7506530  84.5743940   9.6289150  77.8993330  85.4290880
   7.8072670  72.2050210  88.2525690   8.6842850  72.2133610  88.6359690
   7.8193510  71.4681050  87.6418040   9.2535940  76.0579750  79.1413710
   9.7773420  75.5642400  78.5103880   9.8395360  76.1930110  79.8861280
   9.4325660  76.1419620  82.6633260   8.4828370  76.1083160  82.7778250
   9.6138670  77.0519730  82.4283030   8.7435910  75.3153100  75.0806120
   9.2395030  75.0823970  75.8655000   8.5451980  74.4764940  74.6643760
  10.1723070  73.9514050  77.6143800  10.0622350  73.7970090  78.5526070
  10.9330660  73.4234990  77.3719210   8.5188790  69.8908180  84.0726800
   9.1561010  70.5042320  84.4385990   8.6663680  69.9268840  83.1276030
  11.0613340  71.7821970  70.8549940  11.9862650  71.6503150  70.6468230
  11.0389130  71.8614790  71.8086390  11.1351830  72.5532630  73.4806650
  10.3403330  72.4877750  74.0099560  11.3395110  73.4883270  73.4692000
   1.8893270  71.0434370  86.9801900   1.8282160  71.6356200  87.7297310
   2.8293650  70.9360330  86.8352160   4.5267830  70.7004430  86.6194190
   5.1408240  71.0183720  85.9575270   5.0717390  70.2153020  87.2390050
   5.2675870  69.2636570  82.9463480   4.3935710  69.5971680  82.7436410
   5.1586620  68.7909750  83.7715350   6.1747850  71.4707440  84.3305200
   5.8461210  70.6559200  83.9506930   7.1230150  71.4277250  84.2070890
   3.0150690  70.1806410  81.8856390   2.2322480  70.6551910  82.1653150
   2.7213620  69.2761240  81.7769570   7.5671760  70.8829510  79.9305480
   8.0079850  70.8274610  79.0827080   7.2979350  71.7987520  80.0015660
   9.4310330  70.5144750  77.9414300   9.3698730  69.5705970  77.7945320
  10.2102360  70.6224840  78.4867760   5.4029890  69.2635610  78.6355490
   6.0059260  69.8355820  79.1104010   4.6622880  69.8275050  78.4129390
   8.5464490  69.6657170  73.9095770   8.7415120  70.5640620  74.1763200
   7.7594360  69.4344250  74.4028720   5.6525110  69.4430640  89.0150430
   5.5390560  69.7625250  89.9101950   6.4694850  69.8443150  88.7187710
   4.5583260  77.4623110  59.3785170   4.4777310  76.5477720  59.1076880
   4.1447680  77.9590180  58.6724880   2.6901300  79.2402130  61.2594440
   1.9143400  78.7602570  61.5493010   3.3414230  78.5607780  61.0850600
   3.1615460  74.7229700  61.4933530   3.5380280  73.8501580  61.3807200
   3.0634970  75.0588400  60.6023970   6.9439580  72.2180140  58.4261870
   7.7649200  71.7276710  58.4687350   6.9773660  72.8077800  59.1793710
  11.2339130  74.2346890  64.9905500  10.5291300  74.6228600  64.4720610
  11.4997050  74.9297180  65.5926430   7.1801060  74.1580520  61.1989410
   6.4756630  74.4465410  61.7792520   7.5413220  74.9680630  60.8388970
  10.2487980  73.6035310  61.5898620   9.3012890  73.6374290  61.7214050
  10.5737970  74.4174260  61.9747980   3.1688280  77.9681320  56.6214730
   2.2417560  77.9018700  56.8503200   3.3213100  78.9061450  56.5069970
   3.1557360  74.2398320  53.6181890   2.2161030  74.4012280  53.7034350
   3.4740620  74.9584000  53.0717880   9.6770120  78.9216840  63.5960920
   8.8488750  78.9909930  63.1211050  10.2720600  79.5071150  63.1276750
   7.1985570  79.5301620  57.1249980   6.5797990  79.1921170  56.4776280
   7.1810020  78.8861380  57.8329170   6.6412130  75.7086160  64.5415790
   6.2283310  76.5339870  64.7955780   5.9088080  75.1231200  64.3492150
   5.3750270  78.7688430  54.1322730   5.8143550  77.9310860  53.9860550
   6.0878690  79.4017830  54.2186870   8.9567410  70.0231240  52.4463770
   8.6440070  70.1158070  53.3462840   9.7179880  70.6012270  52.3961200
  10.1668700  74.7602740  68.4237910   9.5512970  75.2682410  67.8953370
   9.8465120  73.8601070  68.3663850   2.2283020  73.5994630  65.8900100
   1.7662390  73.8077650  66.7020040   1.8261130  72.7853980  65.5870770
   7.2287530  74.8203580  67.0196760   6.3781120  74.5209330  67.3405830
   7.0689320  75.0645590  66.1080580   4.3237240  76.3205330  69.1195550
   4.6490650  75.4869080  68.7797780   5.1117570  76.8433850  69.2673880
   4.9625190  75.8623050  56.6136680   4.3634080  76.5858850  56.4300300
   5.5104800  75.7999830  55.8313130   3.5690060  74.4986590  58.6439960
   3.9619630  74.8158790  57.8308650   3.9306910  73.6198470  58.7584480
   1.8782230  73.2493900  69.9036820   1.1880550  73.0566100  70.5382910
   2.6214530  73.5328540  70.4361120   4.1545200  77.0892340  62.7390740
   3.4226320  77.5979150  63.0880840   3.7569540  76.2722320  62.4379520
   4.6171110  72.5426020  62.1513680   4.6343850  72.9934670  62.9955530
   4.3686690  71.6431660  62.3647120   8.0441860  69.9558200  67.9900060
   8.3687630  69.2247860  68.5158040   8.0798370  69.6371840  67.0881050
   3.4309640  71.4621270  55.7415480   2.6174250  70.9634440  55.6660790
   3.2371590  72.3019520  55.3251830   3.3518500  80.1392370  67.4855090
   3.2855810  79.2188040  67.2312680   2.7223640  80.2367810  68.1999730
   6.1458030  75.8340920  54.0377640   7.0337650  76.1458150  53.8628980
   6.1163120  74.9613170  53.6458220   8.4172300  77.1452760  53.5057500
   8.3336020  77.5766980  52.6553940   9.1366490  77.6051110  53.9384320
   9.4946440  79.6020280  66.5827470   8.7694630  80.1949060  66.3856860
  10.0221900  79.5943820  65.7840840   4.8081010  73.6875250  64.7837760
   5.1761830  72.8670460  65.1117330   3.9479210  73.7477140  65.1993410
   8.1743040  72.6432190  55.5925320   7.5456200  72.7477860  54.8783550
   7.6794960  72.8628970  56.3819200   1.7683000  76.3414840  65.0075730
   2.2668250  76.8160660  65.6727580   1.9105950  75.4178360  65.2145760
   4.1742500  71.6468800  58.4478990   4.0510280  71.6654930  57.4988500
   5.1227060  71.6947740  58.5677390   8.9749860  72.5582800  65.8504120
   8.4723460  73.2988200  66.1897930   9.7906520  72.9466800  65.5340910
   7.2671870  77.8015980  59.2965480   6.3262010  77.8166210  59.4713170
   7.5815940  77.0151940  59.7425780   1.7900180  78.5038320  52.0789180
   2.3105840  77.7887340  51.7130330   2.4368580  79.1424190  52.3789690
   6.3378020  79.9266720  67.4024250   6.7519040  80.0811800  68.2514670
   5.4029020  80.0521940  67.5650030   6.8100190  77.2662880  69.4063400
   7.3920960  76.5115200  69.3183880   6.9861960  77.7970320  68.6294880
   3.4357150  77.6103380  66.7558020   3.5553360  77.0144520  67.4952860
   4.2951150  77.6473070  66.3359320   5.7745050  78.1640570  65.3320530
   5.2480270  78.6883190  64.7285670   6.1176390  78.7967960  65.9630260
   5.0219350  73.7690540  68.2466860   4.3334870  73.1072080  68.1816850
   5.7425370  73.3228810  68.6915320   5.6519750  70.3642170  54.3057120
   5.9322040  69.5210070  54.6616540   4.8785480  70.5965280  54.8195870
  10.0300470  79.6018900  54.9161030  10.7919380  80.1715550  55.0220720
  10.0454840  79.0346100  55.6869340   6.4795250  72.9198120  53.3687180
   6.8980130  72.7329100  52.5283840   6.1731310  72.0677170  53.6790110
   9.9784980  77.8322260  57.0662980   9.6028580  77.0650190  56.6344270
   9.2488100  78.2144960  57.5537910   9.3684600  76.9793780  66.7002500
   9.1370690  76.7506530  65.8000450   9.6289150  77.8993330  66.6547390
   7.8072670  72.2050210  69.4782200   8.6842850  72.2133610  69.8616200
   7.8193510  71.4681050  68.8674550   9.2535940  76.0579750  60.3670220
   9.7773420  75.5642400  59.7360390   9.8395360  76.1930110  61.1117790
   9.4325660  76.1419620  63.8889770   8.4828370  76.1083160  64.0034760
   9.6138670  77.0519730  63.6539540   8.7435910  75.3153100  56.3062630
   9.2395030  75.0823970  57.0911510   8.5451980  74.4764940  55.8900270
  10.1723070  73.9514050  58.8400310  10.0622350  73.7970090  59.7782580
  10.9330660  73.4234990  58.5975720   8.5188790  69.8908180  65.2983310
   9.1561010  70.5042320  65.6642500   8.6663680  69.9268840  64.3532540
  11.0613340  71.7821970  52.0806450  11.9862650  71.6503150  51.8724740
  11.0389130  71.8614790  53.0342900  11.1351830  72.5532630  54.7063160
  10.3403330  72.4877750  55.2356070  11.3395110  73.4883270  54.6948510
   1.8893270  71.0434370  68.2058410   1.8282160  71.6356200  68.9553820
   2.8293650  70.9360330  68.0608670   4.5267830  70.7004430  67.8450700
   5.1408240  71.0183720  67.1831780   5.0717390  70.2153020  68.4646560
   5.2675870  69.2636570  64.1719990   4.3935710  69.5971680  63.9692920
   5.1586620  68.7909750  64.9971860   6.1747850  71.4707440  65.5561710
   5.8461210  70.6559200  65.1763440   7.1230150  71.4277250  65.4327400
   3.0150690  70.1806410  63.1112900   2.2322480  70.6551910  63.3909660
   2.7213620  69.2761240  63.0026080   7.5671760  70.8829510  61.1561990
   8.0079850  70.8274610  60.3083590   7.2979350  71.7987520  61.2272170
   9.4310330  70.5144750  59.1670810   9.3698730  69.5705970  59.0201830
  10.2102360  70.6224840  59.7124270   5.4029890  69.2635610  59.8612000
   6.0059260  69.8355820  60.3360520   4.6622880  69.8275050  59.6385900
   8.5464490  69.6657170  55.1352280   8.7415120  70.5640620  55.4019710
   7.7594360  69.4344250  55.6285230   5.6525110  69.4430640  70.2406940
   5.5390560  69.7625250  71.1358460   6.4694850  69.8443150  69.9444220
   4.5583260  77.4623110  40.6041680   4.4777310  76.5477720  40.3333390
   4.1447680  77.9590180  39.8981390   2.6901300  79.2402130  42.4850950
   1.9143400  78.7602570  42.7749520   3.3414230  78.5607780  42.3107110
   3.1615460  74.7229700  42.7190040   3.5380280  73.8501580  42.6063710
   3.0634970  75.0588400  41.8280480   6.9439580  72.2180140  39.6518380
   7.7649200  71.7276710  39.6943860   6.9773660  72.8077800  40.4050220
  11.2339130  74.2346890  46.2162010  10.5291300  74.6228600  45.6977120
  11.4997050  74.9297180  46.8182940   7.1801060  74.1580520  42.4245920
   6.4756630  74.4465410  43.0049030   7.5413220  74.9680630  42.0645480
  10.2487980  73.6035310  42.8155130   9.3012890  73.6374290  42.9470560
  10.5737970  74.4174260  43.2004490   3.1688280  77.9681320  37.8471240
   2.2417560  77.9018700  38.0759710   3.3213100  78.9061450  37.7326480
   3.1557360  74.2398320  34.8438400   2.2161030  74.4012280  34.9290860
   3.4740620  74.9584000  34.2974390   9.6770120  78.9216840  44.8217430
   8.8488750  78.9909930  44.3467560  10.2720600  79.5071150  44.3533260
   7.1985570  79.5301620  38.3506490   6.5797990  79.1921170  37.7032790
   7.1810020  78.8861380  39.0585680   6.6412130  75.7086160  45.7672300
   6.2283310  76.5339870  46.0212290   5.9088080  75.1231200  45.5748660
   5.3750270  78.7688430  35.3579240   5.8143550  77.9310860  35.2117060
   6.0878690  79.4017830  35.4443380   8.9567410  70.0231240  33.6720280
   8.6440070  70.1158070  34.5719350   9.7179880  70.6012270  33.6217710
  10.1668700  74.7602740  49.6494420   9.5512970  75.2682410  49.1209880
   9.8465120  73.8601070  49.5920360   2.2283020  73.5994630  47.1156610
   1.7662390  73.8077650  47.9276550   1.8261130  72.7853980  46.8127280
   7.2287530  74.8203580  48.2453270   6.3781120  74.5209330  48.5662340
   7.0689320  75.0645590  47.3337090   4.3237240  76.3205330  50.3452060
   4.6490650  75.4869080  50.0054290   5.1117570  76.8433850  50.4930390
   4.9625190  75.8623050  37.8393190   4.3634080  76.5858850  37.6556810
   5.5104800  75.7999830  37.0569640   3.5690060  74.4986590  39.8696470
   3.9619630  74.8158790  39.0565160   3.9306910  73.6198470  39.9840990
   1.8782230  73.2493900  51.1293330   1.1880550  73.0566100  51.7639420
   2.6214530  73.5328540  51.6617630   4.1545200  77.0892340  43.9647250
   3.4226320  77.5979150  44.3137350   3.7569540  76.2722320  43.6636030
   4.6171110  72.5426020  43.3770190   4.6343850  72.9934670  44.2212040
   4.3686690  71.6431660  43.5903630   8.0441860  69.9558200  49.2156570
   8.3687630  69.2247860  49.7414550   8.0798370  69.6371840  48.3137560
   3.4309640  71.4621270  36.9671990   2.6174250  70.9634440  36.8917300
   3.2371590  72.3019520  36.5508340   3.3518500  80.1392370  48.7111600
   3.2855810  79.2188040  48.4569190   2.7223640  80.2367810  49.4256240
   6.1458030  75.8340920  35.2634150   7.0337650  76.1458150  35.0885490
   6.1163120  74.9613170  34.8714730   8.4172300  77.1452760  34.7314010
   8.3336020  77.5766980  33.8810450   9.1366490  77.6051110  35.1640830
   9.4946440  79.6020280  47.8083980   8.7694630  80.1949060  47.6113370
  10.0221900  79.5943820  47.0097350   4.8081010  73.6875250  46.0094270
   5.1761830  72.8670460  46.3373840   3.9479210  73.7477140  46.4249920
   8.1743040  72.6432190  36.8181830   7.5456200  72.7477860  36.1040060
   7.6794960  72.8628970  37.6075710   1.7683000  76.3414840  46.2332240
   2.2668250  76.8160660  46.8984090   1.9105950  75.4178360  46.4402270
   4.1742500  71.6468800  39.6735500   4.0510280  71.6654930  38.7245010
   5.1227060  71.6947740  39.7933900   8.9749860  72.5582800  47.0760630
   8.4723460  73.2988200  47.4154440   9.7906520  72.9466800  46.7597420
   7.2671870  77.8015980  40.5221990   6.3262010  77.8166210  40.6969680
   7.5815940  77.0151940  40.9682290   1.7900180  78.5038320  33.3045690
   2.3105840  77.7887340  32.9386840   2.4368580  79.1424190  33.6046200
   6.3378020  79.9266720  48.6280760   6.7519040  80.0811800  49.4771180
   5.4029020  80.0521940  48.7906540   6.8100190  77.2662880  50.6319910
   7.3920960  76.5115200  50.5440390   6.9861960  77.7970320  49.8551390
   3.4357150  77.6103380  47.9814530   3.5553360  77.0144520  48.7209370
   4.2951150  77.6473070  47.5615830   5.7745050  78.1640570  46.5577040
   5.2480270  78.6883190  45.9542180   6.1176390  78.7967960  47.1886770
   5.0219350  73.7690540  49.4723370   4.3334870  73.1072080  49.4073360
   5.7425370  73.3228810  49.9171830   5.6519750  70.3642170  35.5313630
   5.9322040  69.5210070  35.8873050   4.8785480  70.5965280  36.0452380
  10.0300470  79.6018900  36.1417540  10.7919380  80.1715550  36.2477230
  10.0454840  79.0346100  36.9125850   6.4795250  72.9198120  34.5943690
   6.8980130  72.7329100  33.7540350   6.1731310  72.0677170  34.9046620
   9.9784980  77.8322260  38.2919490   9.6028580  77.0650190  37.8600780
   9.2488100  78.2144960  38.7794420   9.3684600  76.9793780  47.9259010
   9.1370690  76.7506530  47.0256960   9.6289150  77.8993330  47.8803900
   7.8072670  72.2050210  50.7038710   8.6842850  72.2133610  51.0872710
   7.8193510  71.4681050  50.0931060   9.2535940  76.0579750  41.5926730
   9.7773420  75.5642400  40.9616900   9.8395360  76.1930110  42.3374300
   9.4325660  76.1419620  45.1146280   8.4828370  76.1083160  45.2291270
   9.6138670  77.0519730  44.8796050   8.7435910  75.3153100  37.5319140
   9.2395030  75.0823970  38.3168020   8.5451980  74.4764940  37.1156780
  10.1723070  73.9514050  40.0656820  10.0622350  73.7970090  41.0039090
  10.9330660  73.4234990  39.8232230   8.5188790  69.8908180  46.5239820
   9.1561010  70.5042320  46.8899010   8.6663680  69.9268840  45.5789050
  11.0613340  71.7821970  33.3062960  11.9862650  71.6503150  33.0981250
  11.0389130  71.8614790  34.2599410  11.1351830  72.5532630  35.9319670
  10.3403330  72.4877750  36.4612580  11.3395110  73.4883270  35.9205020
   1.8893270  71.0434370  49.4314920   1.8282160  71.6356200  50.1810330
   2.8293650  70.9360330  49.2865180   4.5267830  70.7004430  49.0707210
   5.1408240  71.0183720  48.4088290   5.0717390  70.2153020  49.6903070
   5.2675870  69.2636570  45.3976500   4.3935710  69.5971680  45.1949430
   5.1586620  68.7909750  46.2228370   6.1747850  71.4707440  46.7818220
   5.8461210  70.6559200  46.4019950   7.1230150  71.4277250  46.6583910
   3.0150690  70.1806410  44.3369410   2.2322480  70.6551910  44.6166170
   2.7213620  69.2761240  44.2282590   7.5671760  70.8829510  42.3818500
   8.0079850  70.8274610  41.5340100   7.2979350  71.7987520  42.4528680
   9.4310330  70.5144750  40.3927320   9.3698730  69.5705970  40.2458340
  10.2102360  70.6224840  40.9380780   5.4029890  69.2635610  41.0868510
   6.0059260  69.8355820  41.5617030   4.6622880  69.8275050  40.8642410
   8.5464490  69.6657170  36.3608790   8.7415120  70.5640620  36.6276220
   7.7594360  69.4344250  36.8541740   5.6525110  69.4430640  51.4663450
   5.5390560  69.7625250  52.3614970   6.4694850  69.8443150  51.1700730
   4.5583260  77.4623110  21.8298190   4.4777310  76.5477720  21.5589900
   4.1447680  77.9590180  21.1237900   2.6901300  79.2402130  23.7107460
   1.9143400  78.7602570  24.0006030   3.3414230  78.5607780  23.5363620
   3.1615460  74.7229700  23.9446550   3.5380280  73.8501580  23.8320220
   3.0634970  75.0588400  23.0536990   6.9439580  72.2180140  20.8774890
   7.7649200  71.7276710  20.9200370   6.9773660  72.8077800  21.6306730
  11.2339130  74.2346890  27.4418520  10.5291300  74.6228600  26.9233630
  11.4997050  74.9297180  28.0439450   7.1801060  74.1580520  23.6502430
   6.4756630  74.4465410  24.2305540   7.5413220  74.9680630  23.2901990
  10.2487980  73.6035310  24.0411640   9.3012890  73.6374290  24.1727070
  10.5737970  74.4174260  24.4261000   3.1688280  77.9681320  19.0727750
   2.2417560  77.9018700  19.3016220   3.3213100  78.9061450  18.9582990
   3.1557360  74.2398320  16.0694910   2.2161030  74.4012280  16.1547370
   3.4740620  74.9584000  15.5230900   9.6770120  78.9216840  26.0473940
   8.8488750  78.9909930  25.5724070  10.2720600  79.5071150  25.5789770
   7.1985570  79.5301620  19.5763000   6.5797990  79.1921170  18.9289300
   7.1810020  78.8861380  20.2842190   6.6412130  75.7086160  26.9928810
   6.2283310  76.5339870  27.2468800   5.9088080  75.1231200  26.8005170
   5.3750270  78.7688430  16.5835750   5.8143550  77.9310860  16.4373570
   6.0878690  79.4017830  16.6699890   8.9567410  70.0231240  14.8976790
   8.6440070  70.1158070  15.7975860   9.7179880  70.6012270  14.8474220
  10.1668700  74.7602740  30.8750930   9.5512970  75.2682410  30.3466390
   9.8465120  73.8601070  30.8176870   2.2283020  73.5994630  28.3413120
   1.7662390  73.8077650  29.1533060   1.8261130  72.7853980  28.0383790
   7.2287530  74.8203580  29.4709780   6.3781120  74.5209330  29.7918850
   7.0689320  75.0645590  28.5593600   4.3237240  76.3205330  31.5708570
   4.6490650  75.4869080  31.2310800   5.1117570  76.8433850  31.7186900
   4.9625190  75.8623050  19.0649700   4.3634080  76.5858850  18.8813320
   5.5104800  75.7999830  18.2826150   3.5690060  74.4986590  21.0952980
   3.9619630  74.8158790  20.2821670   3.9306910  73.6198470  21.2097500
   1.8782230  73.2493900  32.3549840   1.1880550  73.0566100  32.9895930
   2.6214530  73.5328540  32.8874140   4.1545200  77.0892340  25.1903760
   3.4226320  77.5979150  25.5393860   3.7569540  76.2722320  24.8892540
   4.6171110  72.5426020  24.6026700   4.6343850  72.9934670  25.4468550
   4.3686690  71.6431660  24.8160140   8.0441860  69.9558200  30.4413080
   8.3687630  69.2247860  30.9671060   8.0798370  69.6371840  29.5394070
   3.4309640  71.4621270  18.1928500   2.6174250  70.9634440  18.1173810
   3.2371590  72.3019520  17.7764850   3.3518500  80.1392370  29.9368110
   3.2855810  79.2188040  29.6825700   2.7223640  80.2367810  30.6512750
   6.1458030  75.8340920  16.4890660   7.0337650  76.1458150  16.3142000
   6.1163120  74.9613170  16.0971240   8.4172300  77.1452760  15.9570520
   8.3336020  77.5766980  15.1066960   9.1366490  77.6051110  16.3897340
   9.4946440  79.6020280  29.0340490   8.7694630  80.1949060  28.8369880
  10.0221900  79.5943820  28.2353860   4.8081010  73.6875250  27.2350780
   5.1761830  72.8670460  27.5630350   3.9479210  73.7477140  27.6506430
   8.1743040  72.6432190  18.0438340   7.5456200  72.7477860  17.3296570
   7.6794960  72.8628970  18.8332220   1.7683000  76.3414840  27.4588750
   2.2668250  76.8160660  28.1240600   1.9105950  75.4178360  27.6658780
   4.1742500  71.6468800  20.8992010   4.0510280  71.6654930  19.9501520
   5.1227060  71.6947740  21.0190410   8.9749860  72.5582800  28.3017140
   8.4723460  73.2988200  28.6410950   9.7906520  72.9466800  27.9853930
   7.2671870  77.8015980  21.7478500   6.3262010  77.8166210  21.9226190
   7.5815940  77.0151940  22.1938800   1.7900180  78.5038320  14.5302200
   2.3105840  77.7887340  14.1643350   2.4368580  79.1424190  14.8302710
   6.3378020  79.9266720  29.8537270   6.7519040  80.0811800  30.7027690
   5.4029020  80.0521940  30.0163050   6.8100190  77.2662880  31.8576420
   7.3920960  76.5115200  31.7696900   6.9861960  77.7970320  31.0807900
   3.4357150  77.6103380  29.2071040   3.5553360  77.0144520  29.9465880
   4.2951150  77.6473070  28.7872340   5.7745050  78.1640570  27.7833550
   5.2480270  78.6883190  27.1798690   6.1176390  78.7967960  28.4143280
   5.0219350  73.7690540  30.6979880   4.3334870  73.1072080  30.6329870
   5.7425370  73.3228810  31.1428340   5.6519750  70.3642170  16.7570140
   5.9322040  69.5210070  17.1129560   4.8785480  70.5965280  17.2708890
  10.0300470  79.6018900  17.3674050  10.7919380  80.1715550  17.4733740
  10.0454840  79.0346100  18.1382360   6.4795250  72.9198120  15.8200200
   6.8980130  72.7329100  14.9796860   6.1731310  72.0677170  16.1303130
   9.9784980  77.8322260  19.5176000   9.6028580  77.0650190  19.0857290
   9.2488100  78.2144960  20.0050930   9.3684600  76.9793780  29.1515520
   9.1370690  76.7506530  28.2513470   9.6289150  77.8993330  29.1060410
   7.8072670  72.2050210  31.9295220   8.6842850  72.2133610  32.3129220
   7.8193510  71.4681050  31.3187570   9.2535940  76.0579750  22.8183240
   9.7773420  75.5642400  22.1873410   9.8395360  76.1930110  23.5630810
   9.4325660  76.1419620  26.3402790   8.4828370  76.1083160  26.4547780
   9.6138670  77.0519730  26.1052560   8.7435910  75.3153100  18.7575650
   9.2395030  75.0823970  19.5424530   8.5451980  74.4764940  18.3413290
  10.1723070  73.9514050  21.2913330  10.0622350  73.7970090  22.2295600
  10.9330660  73.4234990  21.0488740   8.5188790  69.8908180  27.7496330
   9.1561010  70.5042320  28.1155520   8.6663680  69.9268840  26.8045560
  11.0613340  71.7821970  14.5319470  11.9862650  71.6503150  14.3237760
  11.0389130  71.8614790  15.4855920  11.1351830  72.5532630  17.1576180
  10.3403330  72.4877750  17.6869090  11.3395110  73.4883270  17.1461530
   1.8893270  71.0434370  30.6571430   1.8282160  71.6356200  31.4066840
   2.8293650  70.9360330  30.5121690   4.5267830  70.7004430  30.2963720
   5.1408240  71.0183720  29.6344800   5.0717390  70.2153020  30.9159580
   5.2675870  69.2636570  26.6233010   4.3935710  69.5971680  26.4205940
   5.1586620  68.7909750  27.4484880   6.1747850  71.4707440  28.0074730
   5.8461210  70.6559200  27.6276460   7.1230150  71.4277250  27.8840420
   3.0150690  70.1806410  25.5625920   2.2322480  70.6551910  25.8422680
   2.7213620  69.2761240  25.4539100   7.5671760  70.8829510  23.6075010
   8.0079850  70.8274610  22.7596610   7.2979350  71.7987520  23.6785190
   9.4310330  70.5144750  21.6183830   9.3698730  69.5705970  21.4714850
  10.2102360  70.6224840  22.1637290   5.4029890  69.2635610  22.3125020
   6.0059260  69.8355820  22.7873540   4.6622880  69.8275050  22.0898920
   8.5464490  69.6657170  17.5865300   8.7415120  70.5640620  17.8532730
   7.7594360  69.4344250  18.0798250   5.6525110  69.4430640  32.6919960
   5.5390560  69.7625250  33.5871480   6.4694850  69.8443150  32.3957240
   4.5583260  77.4623110   3.0554700   4.4777310  76.5477720   2.7846410
   4.1447680  77.9590180   2.3494410   2.6901300  79.2402130   4.9363970
   1.9143400  78.7602570   5.2262540   3.3414230  78.5607780   4.7620130
   3.1615460  74.7229700   5.1703060   3.5380280  73.8501580   5.0576730
   3.0634970  75.0588400   4.2793500   6.9439580  72.2180140   2.1031400
   7.7649200  71.7276710   2.1456880   6.9773660  72.8077800   2.8563240
  11.2339130  74.2346890   8.6675030  10.5291300  74.6228600   8.1490140
  11.4997050  74.9297180   9.2695960   7.1801060  74.1580520   4.8758940
   6.4756630  74.4465410   5.4562050   7.5413220  74.9680630   4.5158500
  10.2487980  73.6035310   5.2668150   9.3012890  73.6374290   5.3983580
  10.5737970  74.4174260   5.6517510   9.6770120  78.9216840   7.2730450
   8.8488750  78.9909930   6.7980580  10.2720600  79.5071150   6.8046280
   6.6412130  75.7086160   8.2185320   6.2283310  76.5339870   8.4725310
   5.9088080  75.1231200   8.0261680  10.1668700  74.7602740  12.1007440
   9.5512970  75.2682410  11.5722900   9.8465120  73.8601070  12.0433380
   2.2283020  73.5994630   9.5669630   1.7662390  73.8077650  10.3789570
   1.8261130  72.7853980   9.2640300   7.2287530  74.8203580  10.6966290
   6.3781120  74.5209330  11.0175360   7.0689320  75.0645590   9.7850110
   4.3237240  76.3205330  12.7965080   4.6490650  75.4869080  12.4567310
   5.1117570  76.8433850  12.9443410   1.8782230  73.2493900  13.5806350
   1.1880550  73.0566100  14.2152440   2.6214530  73.5328540  14.1130650
   4.1545200  77.0892340   6.4160270   3.4226320  77.5979150   6.7650370
   3.7569540  76.2722320   6.1149050   4.6171110  72.5426020   5.8283210
   4.6343850  72.9934670   6.6725060   4.3686690  71.6431660   6.0416650
   8.0441860  69.9558200  11.6669590   8.3687630  69.2247860  12.1927570
   8.0798370  69.6371840  10.7650580   3.3518500  80.1392370  11.1624620
   3.2855810  79.2188040  10.9082210   2.7223640  80.2367810  11.8769260
   9.4946440  79.6020280  10.2597000   8.7694630  80.1949060  10.0626390
  10.0221900  79.5943820   9.4610370   4.8081010  73.6875250   8.4607290
   5.1761830  72.8670460   8.7886860   3.9479210  73.7477140   8.8762940
   1.7683000  76.3414840   8.6845260   2.2668250  76.8160660   9.3497110
   1.9105950  75.4178360   8.8915290   8.9749860  72.5582800   9.5273650
   8.4723460  73.2988200   9.8667460   9.7906520  72.9466800   9.2110440
   7.2671870  77.8015980   2.9735010   6.3262010  77.8166210   3.1482700
   7.5815940  77.0151940   3.4195310   6.3378020  79.9266720  11.0793780
   6.7519040  80.0811800  11.9284200   5.4029020  80.0521940  11.2419560
   6.8100190  77.2662880  13.0832930   7.3920960  76.5115200  12.9953410
   6.9861960  77.7970320  12.3064410   3.4357150  77.6103380  10.4327550
   3.5553360  77.0144520  11.1722390   4.2951150  77.6473070  10.0128850
   5.7745050  78.1640570   9.0090060   5.2480270  78.6883190   8.4055200
   6.1176390  78.7967960   9.6399790   5.0219350  73.7690540  11.9236390
   4.3334870  73.1072080  11.8586380   5.7425370  73.3228810  12.3684850
   9.3684600  76.9793780  10.3772030   9.1370690  76.7506530   9.4769980
   9.6289150  77.8993330  10.3316920   7.8072670  72.2050210  13.1551730
   8.6842850  72.2133610  13.5385730   7.8193510  71.4681050  12.5444080
   9.2535940  76.0579750   4.0439750   9.7773420  75.5642400   3.4129920
   9.8395360  76.1930110   4.7887320   9.4325660  76.1419620   7.5659300
   8.4828370  76.1083160   7.6804290   9.6138670  77.0519730   7.3309070
  10.1723070  73.9514050   2.5169840  10.0622350  73.7970090   3.4552110
  10.9330660  73.4234990   2.2745250   8.5188790  69.8908180   8.9752840
   9.1561010  70.5042320   9.3412030   8.6663680  69.9268840   8.0302070
   1.8893270  71.0434370  11.8827940   1.8282160  71.6356200  12.6323350
   2.8293650  70.9360330  11.7378200   4.5267830  70.7004430  11.5220230
   5.1408240  71.0183720  10.8601310   5.0717390  70.2153020  12.1416090
   5.2675870  69.2636570   7.8489520   4.3935710  69.5971680   7.6462450
   5.1586620  68.7909750   8.6741390   6.1747850  71.4707440   9.2331240
   5.8461210  70.6559200   8.8532970   7.1230150  71.4277250   9.1096930
   3.0150690  70.1806410   6.7882430   2.2322480  70.6551910   7.0679190
   2.7213620  69.2761240   6.6795610   7.5671760  70.8829510   4.8331520
   8.0079850  70.8274610   3.9853120   7.2979350  71.7987520   4.9041700
   9.4310330  70.5144750   2.8440340   9.3698730  69.5705970   2.6971360
  10.2102360  70.6224840   3.3893800   5.4029890  69.2635610   3.5381530
   6.0059260  69.8355820   4.0130050   4.6622880  69.8275050   3.3155430
   5.6525110  69.4430640  13.9176470   5.5390560  69.7625250  14.8127990
   6.4694850  69.8443150  13.6213750   4.5583260  58.6879620  96.9272150
   4.4777310  57.7734230  96.6563860   4.1447680  59.1846690  96.2211860
   2.6901300  60.4658640  98.8081420   1.9143400  59.9859080  99.0979990
   3.3414230  59.7864290  98.6337580   6.7108730  64.8718830  97.5880550
   6.2490260  64.1006070  97.9167720   7.5234280  64.8984900  98.0933000
   2.9372040  67.1576840  97.2084540   2.3183480  67.6134340  96.6378980
   3.7923820  67.3128300  96.8074240   2.1310290  63.1415830  98.8151580
   2.0618570  62.2005770  98.6540710   2.8930150  63.2317240  99.3874150
   3.1615460  55.9486210  99.0420510   3.5380280  55.0758090  98.9294180
   3.0634970  56.2844910  98.1510950   6.9439580  53.4436650  95.9748850
   7.7649200  52.9533220  96.0174330   6.9773660  54.0334310  96.7280690
   3.8035390  62.0416080  94.6016450   3.1852660  62.5065530  94.0379170
   4.3158640  62.7343560  95.0185960   7.1801060  55.3837030  98.7476390
   6.4756630  55.6721920  99.3279500   7.5413220  56.1937140  98.3875950
   8.7963840  65.0012160 101.0103870   8.1127360  65.6711270 101.0020540
   9.3358130  65.1992810 100.2448730  10.2487980  54.8291820  99.1385600
   9.3012890  54.8630800  99.2701030  10.5737970  55.6430770  99.5234960
   6.3322580  66.8456290  99.7249050   6.3449740  66.4418580  98.8571310
   5.7797800  67.6203580  99.6210480   7.6268000  63.5672510  94.8139220
   7.5164330  62.6246840  94.9388640   7.6236250  63.9288150  95.7001980
   5.7308020  61.7486130 101.0531660   6.1476810  61.5346240 100.2185120
   6.4547840  62.0058920 101.6240280   3.1688280  59.1937830  94.1701710
   2.2417560  59.1275210  94.3990180   3.3213100  60.1317960  94.0556950
   3.1557360  55.4654830  91.1668870   2.2161030  55.6268790  91.2521330
   3.4740620  56.1840510  90.6204860   9.6770120  60.1473350 101.1447900
   8.8488750  60.2166440 100.6698030  10.2720600  60.7327660 100.6763730
   7.1985570  60.7558130  94.6736960   6.5797990  60.4177680  94.0263260
   7.1810020  60.1117890  95.3816150   5.3750270  59.9944940  91.6809710
   5.8143550  59.1567370  91.5347530   6.0878690  60.6274340  91.7673850
   3.4845650  64.9341010  95.6490950   3.9241560  65.6765340  95.2346340
   3.4232540  65.1767580  96.5729910   8.9567410  51.2487750  89.9950750
   8.6440070  51.3414580  90.8949820   9.7179880  51.8268780  89.9448180
   6.1515830  67.9210130  93.0053960   5.9916970  67.6313070  93.9035790
   5.9862540  67.1450260  92.4699190   5.8541960  65.4297690  91.5651960
   5.1607120  65.4274980  90.9054240   6.5964820  65.0057010  91.1346130
   5.4191890  67.0560400  95.6400450   5.8748840  66.2749780  95.9539070
   5.7584410  67.7667220  96.1841630   4.9625190  57.0879560  94.1623660
   4.3634080  57.8115360  93.9787280   5.5104800  57.0256340  93.3800110
   3.5690060  55.7243100  96.1926940   3.9619630  56.0415300  95.3795630
   3.9306910  54.8454980  96.3071460   4.1545200  58.3148850 100.2877720
   3.4226320  58.8235660 100.6367820   3.7569540  57.4978830  99.9866500
   4.6171110  53.7682530  99.7000660   4.6343850  54.2191180 100.5442510
   4.3686690  52.8688170  99.9134100   7.9699700  61.2939820  99.1473070
   8.6898820  61.7895110  98.7569180   7.7681520  60.6157710  98.5026940
   3.4309640  52.6877780  93.2902460   2.6174250  52.1890950  93.2147770
   3.2371590  53.5276030  92.8738810   6.1458030  57.0597430  91.5864620
   7.0337650  57.3714660  91.4115960   6.1163120  56.1869680  91.1945200
   2.1418620  63.2321120  92.2652790   2.4834320  63.9763350  91.7696110
   1.3131330  63.5452240  92.6277620   8.4172300  58.3709270  91.0544480
   8.3336020  58.8023490  90.2040920   9.1366490  58.8307620  91.4871300
   9.4459550  65.2251530  93.7826610   8.8035710  64.5707150  94.0570330
   9.0590210  65.6306620  93.0067280   5.0246030  62.5536960  97.6298300
   5.3769850  61.9565090  96.9699670   4.1408360  62.2281190  97.8006550
   3.9901210  63.8319370 100.5963820   4.6323440  63.1312530 100.7095990
   4.5150560  64.6117810 100.4160710   7.8356930  64.1167990  90.3202960
   7.6094510  63.3998430  90.9127600   7.4453130  63.8680430  89.4824710
   7.4173180  62.0339930  91.9817120   7.1294880  62.4952620  92.7695000
   8.2125350  61.5737700  92.2501340   8.1743040  53.8688700  93.1412300
   7.5456200  53.9734370  92.4270530   7.6794960  54.0885480  93.9306180
   2.6201180  65.5894290  90.5746280   2.7213160  65.3858280  89.6448260
   1.7202920  65.3352570  90.7794060   4.1742500  52.8725310  95.9965970
   4.0510280  52.8911440  95.0475480   5.1227060  52.9204250  96.1164370
   7.2671870  59.0272490  96.8452460   6.3262010  59.0422720  97.0200150
   7.5815940  58.2408450  97.2912760   9.2697450  66.1981340  98.5206720
   9.3944870  67.0212510  98.9930530  10.1363010  65.9872070  98.1730870
   8.9047460  66.6912990  91.4386160   8.6188970  66.2778130  90.6240340
   8.7067010  67.6200700  91.3186680   3.6097420  61.7466300  90.4833760
   3.0607520  62.1935600  91.1276500   4.2316680  61.2415550  91.0071430
   1.7900180  59.7294830  89.6276160   2.3105840  59.0143850  89.2617310
   2.4368580  60.3680700  89.9276670   5.6519750  51.5898680  91.8544100
   5.9322040  50.7466580  92.2103520   4.8785480  51.8221790  92.3682850
   2.3548210  67.8106440  91.9177900   3.2499000  68.1491410  91.9396660
   2.3865840  67.0885850  91.2902180  10.5744010  64.0827930  89.9613810
   9.7436970  64.1504580  90.4321040  10.7515840  64.9732050  89.6580670
  10.0300470  60.8275410  92.4648010  10.7919380  61.3972060  92.5707700
  10.0454840  60.2602610  93.2356320  11.0360440  61.6825510  97.3089940
  11.4069270  60.8992830  96.9025910  11.6762370  62.3714610  97.1307240
  10.0819640  61.1209780  89.6220530  10.3568480  62.0288660  89.4939750
   9.8930380  61.0572310  90.5582520   6.4795250  54.1454630  90.9174160
   6.8980130  53.9585610  90.0770820   6.1731310  53.2933680  91.2277090
   9.9784980  59.0578770  94.6149960   9.6028580  58.2906700  94.1831250
   9.2488100  59.4401470  95.1024890   9.2535940  57.2836260  97.9157200
   9.7773420  56.7898910  97.2847370   9.8395360  57.4186620  98.6604770
   9.4325660  57.3676130 101.4376750   8.4828370  57.3339670 101.5521740
   9.6138670  58.2776240 101.2026520   8.7435910  56.5409610  93.8549610
   9.2395030  56.3080480  94.6398490   8.5451980  55.7021450  93.4387250
  10.1723070  55.1770560  96.3887290  10.0622350  55.0226600  97.3269560
  10.9330660  54.6491500  96.1462700  11.0613340  53.0078480  89.6293430
  11.9862650  52.8759660  89.4211720  11.0389130  53.0871300  90.5829880
  11.1351830  53.7789140  92.2550140  10.3403330  53.7134260  92.7843050
  11.3395110  54.7139780  92.2435490   8.0770250  67.8180690  96.2488530
   8.6729320  67.4965260  95.5722950   8.3348400  67.3452510  97.0401800
   8.6282460  68.4675990 100.0786260   8.1685430  69.2191800  99.7044280
   7.9994920  67.7482460 100.0201060   1.7973680  67.6672720 100.0803370
   2.0851490  67.4127020  99.2036380   2.3096900  67.1150080 100.6708940
   3.0150690  51.4062920 100.6599880   2.2322480  51.8808420 100.9396640
   2.7213620  50.5017750 100.5513060   7.5671760  52.1086020  98.7048970
   8.0079850  52.0531120  97.8570570   7.2979350  53.0244030  98.7759150
   9.4310330  51.7401260  96.7157790   9.3698730  50.7962480  96.5688810
  10.2102360  51.8481350  97.2611250   5.4029890  50.4892120  97.4098980
   6.0059260  51.0612330  97.8847500   4.6622880  51.0531560  97.1872880
   8.5464490  50.8913680  92.6839260   8.7415120  51.7897130  92.9506690
   7.7594360  50.6600760  93.1772210  10.0991100  68.1314390  94.4445820
  10.2743290  67.4452130  93.8006740   9.4012670  68.6561440  94.0522490
   4.5583260  58.6879620  78.1528660   4.4777310  57.7734230  77.8820370
   4.1447680  59.1846690  77.4468370   2.6901300  60.4658640  80.0337930
   1.9143400  59.9859080  80.3236500   3.3414230  59.7864290  79.8594090
   6.7108730  64.8718830  78.8137060   6.2490260  64.1006070  79.1424230
   7.5234280  64.8984900  79.3189510   2.9372040  67.1576840  78.4341050
   2.3183480  67.6134340  77.8635490   3.7923820  67.3128300  78.0330750
   2.1310290  63.1415830  80.0408090   2.0618570  62.2005770  79.8797220
   2.8930150  63.2317240  80.6130660   3.1615460  55.9486210  80.2677020
   3.5380280  55.0758090  80.1550690   3.0634970  56.2844910  79.3767460
   6.9439580  53.4436650  77.2005360   7.7649200  52.9533220  77.2430840
   6.9773660  54.0334310  77.9537200  11.2339130  55.4603400  83.7648990
  10.5291300  55.8485110  83.2464100  11.4997050  56.1553690  84.3669920
   3.8035390  62.0416080  75.8272960   3.1852660  62.5065530  75.2635680
   4.3158640  62.7343560  76.2442470   7.1801060  55.3837030  79.9732900
   6.4756630  55.6721920  80.5536010   7.5413220  56.1937140  79.6132460
   8.7963840  65.0012160  82.2360380   8.1127360  65.6711270  82.2277050
   9.3358130  65.1992810  81.4705240  10.2487980  54.8291820  80.3642110
   9.3012890  54.8630800  80.4957540  10.5737970  55.6430770  80.7491470
   6.3322580  66.8456290  80.9505560   6.3449740  66.4418580  80.0827820
   5.7797800  67.6203580  80.8466990   7.6268000  63.5672510  76.0395730
   7.5164330  62.6246840  76.1645150   7.6236250  63.9288150  76.9258490
   5.7308020  61.7486130  82.2788170   6.1476810  61.5346240  81.4441630
   6.4547840  62.0058920  82.8496790   3.1688280  59.1937830  75.3958220
   2.2417560  59.1275210  75.6246690   3.3213100  60.1317960  75.2813460
   3.1557360  55.4654830  72.3925380   2.2161030  55.6268790  72.4777840
   3.4740620  56.1840510  71.8461370   9.6770120  60.1473350  82.3704410
   8.8488750  60.2166440  81.8954540  10.2720600  60.7327660  81.9020240
   7.1985570  60.7558130  75.8993470   6.5797990  60.4177680  75.2519770
   7.1810020  60.1117890  76.6072660   6.6412130  56.9342670  83.3159280
   6.2283310  57.7596380  83.5699270   5.9088080  56.3487710  83.1235640
   7.3312230  66.9802000  84.0040260   6.8542790  67.7874190  83.8112870
   6.6474020  66.3280330  84.1566470   5.3750270  59.9944940  72.9066220
   5.8143550  59.1567370  72.7604040   6.0878690  60.6274340  72.9930360
   3.4845650  64.9341010  76.8747460   3.9241560  65.6765340  76.4602850
   3.4232540  65.1767580  77.7986420   8.9567410  51.2487750  71.2207260
   8.6440070  51.3414580  72.1206330   9.7179880  51.8268780  71.1704690
  10.9111440  66.7413940  89.0731650  11.3871160  67.2196830  89.7520730
  11.5318600  66.6731430  88.3477150  10.3144690  63.9326790  86.2331660
  10.4407750  63.6938670  85.3148840  10.3566070  63.1011330  86.7053740
   4.1761430  67.6354790  84.8026470   4.6906100  67.5462800  85.6048900
   3.3330510  67.9814490  85.0954380   6.1515830  67.9210130  74.2310470
   5.9916970  67.6313070  75.1292300   5.9862540  67.1450260  73.6955700
   5.8541960  65.4297690  72.7908470   5.1607120  65.4274980  72.1310750
   6.5964820  65.0057010  72.3602640   5.4191890  67.0560400  76.8656960
   5.8748840  66.2749780  77.1795580   5.7584410  67.7667220  77.4098140
  10.1668700  55.9859250  87.1981400   9.5512970  56.4938920  86.6696860
   9.8465120  55.0857580  87.1407340   2.2283020  54.8251140  84.6643590
   1.7662390  55.0334160  85.4763530   1.8261130  54.0110490  84.3614260
   7.2287530  56.0460090  85.7940250   6.3781120  55.7465840  86.1149320
   7.0689320  56.2902100  84.8824070   4.3237240  57.5461840  87.8939040
   4.6490650  56.7125590  87.5541270   5.1117570  58.0690360  88.0417370
   4.9625190  57.0879560  75.3880170   4.3634080  57.8115360  75.2043790
   5.5104800  57.0256340  74.6056620   3.5690060  55.7243100  77.4183450
   3.9619630  56.0415300  76.6052140   3.9306910  54.8454980  77.5327970
   1.8782230  54.4750410  88.6780310   1.1880550  54.2822610  89.3126400
   2.6214530  54.7585050  89.2104610   4.1545200  58.3148850  81.5134230
   3.4226320  58.8235660  81.8624330   3.7569540  57.4978830  81.2123010
   4.6171110  53.7682530  80.9257170   4.6343850  54.2191180  81.7699020
   4.3686690  52.8688170  81.1390610   8.0441860  51.1814710  86.7643550
   8.3687630  50.4504370  87.2901530   8.0798370  50.8628350  85.8624540
   7.9699700  61.2939820  80.3729580   8.6898820  61.7895110  79.9825690
   7.7681520  60.6157710  79.7283450   3.4309640  52.6877780  74.5158970
   2.6174250  52.1890950  74.4404280   3.2371590  53.5276030  74.0995320
   3.3518500  61.3648880  86.2598580   3.2855810  60.4444550  86.0056170
   2.7223640  61.4624320  86.9743220   6.1458030  57.0597430  72.8121130
   7.0337650  57.3714660  72.6372470   6.1163120  56.1869680  72.4201710
   2.1418620  63.2321120  73.4909300   2.4834320  63.9763350  72.9952620
   1.3131330  63.5452240  73.8534130   3.2835230  64.1869450  86.0102380
   3.2979770  63.2550410  85.7921290   2.5760330  64.2729210  86.6492150
   8.4172300  58.3709270  72.2800990   8.3336020  58.8023490  71.4297430
   9.1366490  58.8307620  72.7127810   9.4946440  60.8276790  85.3570960
   8.7694630  61.4205570  85.1600350  10.0221900  60.8200330  84.5584330
   9.4459550  65.2251530  75.0083120   8.8035710  64.5707150  75.2826840
   9.0590210  65.6306620  74.2323790   5.0246030  62.5536960  78.8554810
   5.3769850  61.9565090  78.1956180   4.1408360  62.2281190  79.0263060
   2.7169130  65.8287020  83.1042880   3.3611350  66.0346400  83.7816300
   3.0798570  65.0675420  82.6513730   3.9901210  63.8319370  81.8220330
   4.6323440  63.1312530  81.9352500   4.5150560  64.6117810  81.6417220
   7.8356930  64.1167990  71.5459470   7.6094510  63.3998430  72.1384110
   7.4453130  63.8680430  70.7081220   5.7638830  64.6314270  85.0256390
   6.0995070  65.2180960  85.7034310   4.8439170  64.5006980  85.2554180
   7.4173180  62.0339930  73.2073630   7.1294880  62.4952620  73.9951510
   8.2125350  61.5737700  73.4757850   4.8081010  54.9131760  83.5581250
   5.1761830  54.0926970  83.8860820   3.9479210  54.9733650  83.9736900
   8.1743040  53.8688700  74.3668810   7.5456200  53.9734370  73.6527040
   7.6794960  54.0885480  75.1562690   2.6201180  65.5894290  71.8002790
   2.7213160  65.3858280  70.8704770   1.7202920  65.3352570  72.0050570
   1.7683000  57.5671350  83.7819220   2.2668250  58.0417170  84.4471070
   1.9105950  56.6434870  83.9889250   4.1742500  52.8725310  77.2222480
   4.0510280  52.8911440  76.2731990   5.1227060  52.9204250  77.3420880
   8.9749860  53.7839310  84.6247610   8.4723460  54.5244710  84.9641420
   9.7906520  54.1723310  84.3084400   7.2671870  59.0272490  78.0708970
   6.3262010  59.0422720  78.2456660   7.5815940  58.2408450  78.5169270
   9.2697450  66.1981340  79.7463230   9.3944870  67.0212510  80.2187040
  10.1363010  65.9872070  79.3987380   4.5837890  63.5838490  88.5541350
   3.9776050  63.6070090  87.8137100   4.2792000  62.8521530  89.0908600
   6.0138260  67.3118780  87.1650760   6.9660010  67.2276800  87.1151000
   5.8666480  67.9760490  87.8384550   8.9047460  66.6912990  72.6642670
   8.6188970  66.2778130  71.8496850   8.7067010  67.6200700  72.5443190
   3.6097420  61.7466300  71.7090270   3.0607520  62.1935600  72.3533010
   4.2316680  61.2415550  72.2327940   7.6632360  63.1008400  87.6412530
   8.4041830  63.4384160  87.1379990   6.9005040  63.2700460  87.0882300
   1.7900180  59.7294830  70.8532670   2.3105840  59.0143850  70.4873820
   2.4368580  60.3680700  71.1533180   6.3378020  61.1523230  86.1767740
   6.7519040  61.3068310  87.0258160   5.4029020  61.2778450  86.3393520
   6.8100190  58.4919390  88.1806890   7.3920960  57.7371710  88.0927370
   6.9861960  59.0226830  87.4038370   3.4357150  58.8359890  85.5301510
   3.5553360  58.2401030  86.2696350   4.2951150  58.8729580  85.1102810
   5.7745050  59.3897080  84.1064020   5.2480270  59.9139700  83.5029160
   6.1176390  60.0224470  84.7373750   5.0219350  54.9947050  87.0210350
   4.3334870  54.3328590  86.9560340   5.7425370  54.5485320  87.4658810
   5.6519750  51.5898680  73.0800610   5.9322040  50.7466580  73.4360030
   4.8785480  51.8221790  73.5939360   2.3548210  67.8106440  73.1434410
   3.2499000  68.1491410  73.1653170   2.3865840  67.0885850  72.5158690
   9.3342560  66.3410110  85.8500610   8.7344550  66.4002670  85.1064530
   9.4636460  65.4015090  85.9797460  10.5744010  64.0827930  71.1870320
   9.7436970  64.1504580  71.6577550  10.7515840  64.9732050  70.8837180
  10.0300470  60.8275410  73.6904520  10.7919380  61.3972060  73.7964210
  10.0454840  60.2602610  74.4612830  11.0360440  61.6825510  78.5346450
  11.4069270  60.8992830  78.1282420  11.6762370  62.3714610  78.3563750
   8.0194200  63.0662090  83.9476770   7.2054040  63.4959250  84.2102560
   8.4268400  63.6780500  83.3345820  10.0819640  61.1209780  70.8477040
  10.3568480  62.0288660  70.7196260   9.8930380  61.0572310  71.7839030
   6.4795250  54.1454630  72.1430670   6.8980130  53.9585610  71.3027330
   6.1731310  53.2933680  72.4533600   9.9784980  59.0578770  75.8406470
   9.6028580  58.2906700  75.4087760   9.2488100  59.4401470  76.3281400
   9.3684600  58.2050290  85.4745990   9.1370690  57.9763040  84.5743940
   9.6289150  59.1249840  85.4290880   7.8072670  53.4306720  88.2525690
   8.6842850  53.4390120  88.6359690   7.8193510  52.6937560  87.6418040
   9.2535940  57.2836260  79.1413710   9.7773420  56.7898910  78.5103880
   9.8395360  57.4186620  79.8861280   9.4325660  57.3676130  82.6633260
   8.4828370  57.3339670  82.7778250   9.6138670  58.2776240  82.4283030
   8.7435910  56.5409610  75.0806120   9.2395030  56.3080480  75.8655000
   8.5451980  55.7021450  74.6643760  10.1723070  55.1770560  77.6143800
  10.0622350  55.0226600  78.5526070  10.9330660  54.6491500  77.3719210
   8.5188790  51.1164690  84.0726800   9.1561010  51.7298830  84.4385990
   8.6663680  51.1525350  83.1276030  11.0613340  53.0078480  70.8549940
  11.9862650  52.8759660  70.6468230  11.0389130  53.0871300  71.8086390
  11.1351830  53.7789140  73.4806650  10.3403330  53.7134260  74.0099560
  11.3395110  54.7139780  73.4692000   8.0770250  67.8180690  77.4745040
   8.6729320  67.4965260  76.7979460   8.3348400  67.3452510  78.2658310
   1.8893270  52.2690880  86.9801900   1.8282160  52.8612710  87.7297310
   2.8293650  52.1616840  86.8352160   4.5267830  51.9260940  86.6194190
   5.1408240  52.2440230  85.9575270   5.0717390  51.4409530  87.2390050
  10.9443010  67.8252570  84.0256030  10.4501290  68.2221440  83.3083160
  10.3356300  67.2001780  84.4193310   5.2675870  50.4893080  82.9463480
   4.3935710  50.8228190  82.7436410   5.1586620  50.0166260  83.7715350
   6.1747850  52.6963950  84.3305200   5.8461210  51.8815710  83.9506930
   7.1230150  52.6533760  84.2070890   8.6282460  68.4675990  81.3042770
   8.1685430  69.2191800  80.9300790   7.9994920  67.7482460  81.2457570
   1.7973680  67.6672720  81.3059880   2.0851490  67.4127020  80.4292890
   2.3096900  67.1150080  81.8965450   3.0150690  51.4062920  81.8856390
   2.2322480  51.8808420  82.1653150   2.7213620  50.5017750  81.7769570
   7.5671760  52.1086020  79.9305480   8.0079850  52.0531120  79.0827080
   7.2979350  53.0244030  80.0015660   9.4310330  51.7401260  77.9414300
   9.3698730  50.7962480  77.7945320  10.2102360  51.8481350  78.4867760
   5.4029890  50.4892120  78.6355490   6.0059260  51.0612330  79.1104010
   4.6622880  51.0531560  78.4129390   8.5464490  50.8913680  73.9095770
   8.7415120  51.7897130  74.1763200   7.7594360  50.6600760  74.4028720
   1.8646040  68.5888820  88.6728080   2.7913350  68.3533090  88.7164040
   1.8496470  69.4160820  88.1914110  10.0991100  68.1314390  75.6702330
  10.2743290  67.4452130  75.0263250   9.4012670  68.6561440  75.2779000
   5.6525110  50.6687150  89.0150430   5.5390560  50.9881760  89.9101950
   6.4694850  51.0699660  88.7187710   8.4323600  67.8158680  88.4969120
   9.2248920  67.3207910  88.2895080   8.7256750  68.4948820  89.1044730
   4.5583260  58.6879620  59.3785170   4.4777310  57.7734230  59.1076880
   4.1447680  59.1846690  58.6724880   2.6901300  60.4658640  61.2594440
   1.9143400  59.9859080  61.5493010   3.3414230  59.7864290  61.0850600
   6.7108730  64.8718830  60.0393570   6.2490260  64.1006070  60.3680740
   7.5234280  64.8984900  60.5446020   2.9372040  67.1576840  59.6597560
   2.3183480  67.6134340  59.0892000   3.7923820  67.3128300  59.2587260
   2.1310290  63.1415830  61.2664600   2.0618570  62.2005770  61.1053730
   2.8930150  63.2317240  61.8387170   3.1615460  55.9486210  61.4933530
   3.5380280  55.0758090  61.3807200   3.0634970  56.2844910  60.6023970
   6.9439580  53.4436650  58.4261870   7.7649200  52.9533220  58.4687350
   6.9773660  54.0334310  59.1793710  11.2339130  55.4603400  64.9905500
  10.5291300  55.8485110  64.4720610  11.4997050  56.1553690  65.5926430
   3.8035390  62.0416080  57.0529470   3.1852660  62.5065530  56.4892190
   4.3158640  62.7343560  57.4698980   7.1801060  55.3837030  61.1989410
   6.4756630  55.6721920  61.7792520   7.5413220  56.1937140  60.8388970
   8.7963840  65.0012160  63.4616890   8.1127360  65.6711270  63.4533560
   9.3358130  65.1992810  62.6961750  10.2487980  54.8291820  61.5898620
   9.3012890  54.8630800  61.7214050  10.5737970  55.6430770  61.9747980
   6.3322580  66.8456290  62.1762070   6.3449740  66.4418580  61.3084330
   5.7797800  67.6203580  62.0723500   7.6268000  63.5672510  57.2652240
   7.5164330  62.6246840  57.3901660   7.6236250  63.9288150  58.1515000
   5.7308020  61.7486130  63.5044680   6.1476810  61.5346240  62.6698140
   6.4547840  62.0058920  64.0753300   3.1688280  59.1937830  56.6214730
   2.2417560  59.1275210  56.8503200   3.3213100  60.1317960  56.5069970
   3.1557360  55.4654830  53.6181890   2.2161030  55.6268790  53.7034350
   3.4740620  56.1840510  53.0717880   9.6770120  60.1473350  63.5960920
   8.8488750  60.2166440  63.1211050  10.2720600  60.7327660  63.1276750
   7.1985570  60.7558130  57.1249980   6.5797990  60.4177680  56.4776280
   7.1810020  60.1117890  57.8329170   6.6412130  56.9342670  64.5415790
   6.2283310  57.7596380  64.7955780   5.9088080  56.3487710  64.3492150
   7.3312230  66.9802000  65.2296770   6.8542790  67.7874190  65.0369380
   6.6474020  66.3280330  65.3822980   5.3750270  59.9944940  54.1322730
   5.8143550  59.1567370  53.9860550   6.0878690  60.6274340  54.2186870
   3.4845650  64.9341010  58.1003970   3.9241560  65.6765340  57.6859360
   3.4232540  65.1767580  59.0242930   8.9567410  51.2487750  52.4463770
   8.6440070  51.3414580  53.3462840   9.7179880  51.8268780  52.3961200
  10.9111440  66.7413940  70.2988160  11.3871160  67.2196830  70.9777240
  11.5318600  66.6731430  69.5733660  10.3144690  63.9326790  67.4588170
  10.4407750  63.6938670  66.5405350  10.3566070  63.1011330  67.9310250
   4.1761430  67.6354790  66.0282980   4.6906100  67.5462800  66.8305410
   3.3330510  67.9814490  66.3210890   6.1515830  67.9210130  55.4566980
   5.9916970  67.6313070  56.3548810   5.9862540  67.1450260  54.9212210
   5.8541960  65.4297690  54.0164980   5.1607120  65.4274980  53.3567260
   6.5964820  65.0057010  53.5859150   5.4191890  67.0560400  58.0913470
   5.8748840  66.2749780  58.4052090   5.7584410  67.7667220  58.6354650
  10.1668700  55.9859250  68.4237910   9.5512970  56.4938920  67.8953370
   9.8465120  55.0857580  68.3663850   2.2283020  54.8251140  65.8900100
   1.7662390  55.0334160  66.7020040   1.8261130  54.0110490  65.5870770
   7.2287530  56.0460090  67.0196760   6.3781120  55.7465840  67.3405830
   7.0689320  56.2902100  66.1080580   4.3237240  57.5461840  69.1195550
   4.6490650  56.7125590  68.7797780   5.1117570  58.0690360  69.2673880
   4.9625190  57.0879560  56.6136680   4.3634080  57.8115360  56.4300300
   5.5104800  57.0256340  55.8313130   3.5690060  55.7243100  58.6439960
   3.9619630  56.0415300  57.8308650   3.9306910  54.8454980  58.7584480
   1.8782230  54.4750410  69.9036820   1.1880550  54.2822610  70.5382910
   2.6214530  54.7585050  70.4361120   4.1545200  58.3148850  62.7390740
   3.4226320  58.8235660  63.0880840   3.7569540  57.4978830  62.4379520
   4.6171110  53.7682530  62.1513680   4.6343850  54.2191180  62.9955530
   4.3686690  52.8688170  62.3647120   8.0441860  51.1814710  67.9900060
   8.3687630  50.4504370  68.5158040   8.0798370  50.8628350  67.0881050
   7.9699700  61.2939820  61.5986090   8.6898820  61.7895110  61.2082200
   7.7681520  60.6157710  60.9539960   3.4309640  52.6877780  55.7415480
   2.6174250  52.1890950  55.6660790   3.2371590  53.5276030  55.3251830
   3.3518500  61.3648880  67.4855090   3.2855810  60.4444550  67.2312680
   2.7223640  61.4624320  68.1999730   6.1458030  57.0597430  54.0377640
   7.0337650  57.3714660  53.8628980   6.1163120  56.1869680  53.6458220
   2.1418620  63.2321120  54.7165810   2.4834320  63.9763350  54.2209130
   1.3131330  63.5452240  55.0790640   3.2835230  64.1869450  67.2358890
   3.2979770  63.2550410  67.0177800   2.5760330  64.2729210  67.8748660
   8.4172300  58.3709270  53.5057500   8.3336020  58.8023490  52.6553940
   9.1366490  58.8307620  53.9384320   9.4946440  60.8276790  66.5827470
   8.7694630  61.4205570  66.3856860  10.0221900  60.8200330  65.7840840
   9.4459550  65.2251530  56.2339630   8.8035710  64.5707150  56.5083350
   9.0590210  65.6306620  55.4580300   5.0246030  62.5536960  60.0811320
   5.3769850  61.9565090  59.4212690   4.1408360  62.2281190  60.2519570
   2.7169130  65.8287020  64.3299390   3.3611350  66.0346400  65.0072810
   3.0798570  65.0675420  63.8770240   3.9901210  63.8319370  63.0476840
   4.6323440  63.1312530  63.1609010   4.5150560  64.6117810  62.8673730
   7.8356930  64.1167990  52.7715980   7.6094510  63.3998430  53.3640620
   7.4453130  63.8680430  51.9337730   5.7638830  64.6314270  66.2512900
   6.0995070  65.2180960  66.9290820   4.8439170  64.5006980  66.4810690
   7.4173180  62.0339930  54.4330140   7.1294880  62.4952620  55.2208020
   8.2125350  61.5737700  54.7014360   4.8081010  54.9131760  64.7837760
   5.1761830  54.0926970  65.1117330   3.9479210  54.9733650  65.1993410
   8.1743040  53.8688700  55.5925320   7.5456200  53.9734370  54.8783550
   7.6794960  54.0885480  56.3819200   2.6201180  65.5894290  53.0259300
   2.7213160  65.3858280  52.0961280   1.7202920  65.3352570  53.2307080
   1.7683000  57.5671350  65.0075730   2.2668250  58.0417170  65.6727580
   1.9105950  56.6434870  65.2145760   4.1742500  52.8725310  58.4478990
   4.0510280  52.8911440  57.4988500   5.1227060  52.9204250  58.5677390
   8.9749860  53.7839310  65.8504120   8.4723460  54.5244710  66.1897930
   9.7906520  54.1723310  65.5340910   7.2671870  59.0272490  59.2965480
   6.3262010  59.0422720  59.4713170   7.5815940  58.2408450  59.7425780
   9.2697450  66.1981340  60.9719740   9.3944870  67.0212510  61.4443550
  10.1363010  65.9872070  60.6243890   4.5837890  63.5838490  69.7797860
   3.9776050  63.6070090  69.0393610   4.2792000  62.8521530  70.3165110
   6.0138260  67.3118780  68.3907270   6.9660010  67.2276800  68.3407510
   5.8666480  67.9760490  69.0641060   8.9047460  66.6912990  53.8899180
   8.6188970  66.2778130  53.0753360   8.7067010  67.6200700  53.7699700
   3.6097420  61.7466300  52.9346780   3.0607520  62.1935600  53.5789520
   4.2316680  61.2415550  53.4584450   7.6632360  63.1008400  68.8669040
   8.4041830  63.4384160  68.3636500   6.9005040  63.2700460  68.3138810
   1.7900180  59.7294830  52.0789180   2.3105840  59.0143850  51.7130330
   2.4368580  60.3680700  52.3789690   6.3378020  61.1523230  67.4024250
   6.7519040  61.3068310  68.2514670   5.4029020  61.2778450  67.5650030
   6.8100190  58.4919390  69.4063400   7.3920960  57.7371710  69.3183880
   6.9861960  59.0226830  68.6294880   3.4357150  58.8359890  66.7558020
   3.5553360  58.2401030  67.4952860   4.2951150  58.8729580  66.3359320
   5.7745050  59.3897080  65.3320530   5.2480270  59.9139700  64.7285670
   6.1176390  60.0224470  65.9630260   5.0219350  54.9947050  68.2466860
   4.3334870  54.3328590  68.1816850   5.7425370  54.5485320  68.6915320
   5.6519750  51.5898680  54.3057120   5.9322040  50.7466580  54.6616540
   4.8785480  51.8221790  54.8195870   2.3548210  67.8106440  54.3690920
   3.2499000  68.1491410  54.3909680   2.3865840  67.0885850  53.7415200
   9.3342560  66.3410110  67.0757120   8.7344550  66.4002670  66.3321040
   9.4636460  65.4015090  67.2053970  10.5744010  64.0827930  52.4126830
   9.7436970  64.1504580  52.8834060  10.7515840  64.9732050  52.1093690
  10.0300470  60.8275410  54.9161030  10.7919380  61.3972060  55.0220720
  10.0454840  60.2602610  55.6869340  11.0360440  61.6825510  59.7602960
  11.4069270  60.8992830  59.3538930  11.6762370  62.3714610  59.5820260
   8.0194200  63.0662090  65.1733280   7.2054040  63.4959250  65.4359070
   8.4268400  63.6780500  64.5602330  10.0819640  61.1209780  52.0733550
  10.3568480  62.0288660  51.9452770   9.8930380  61.0572310  53.0095540
   6.4795250  54.1454630  53.3687180   6.8980130  53.9585610  52.5283840
   6.1731310  53.2933680  53.6790110   9.9784980  59.0578770  57.0662980
   9.6028580  58.2906700  56.6344270   9.2488100  59.4401470  57.5537910
   9.3684600  58.2050290  66.7002500   9.1370690  57.9763040  65.8000450
   9.6289150  59.1249840  66.6547390   7.8072670  53.4306720  69.4782200
   8.6842850  53.4390120  69.8616200   7.8193510  52.6937560  68.8674550
   9.2535940  57.2836260  60.3670220   9.7773420  56.7898910  59.7360390
   9.8395360  57.4186620  61.1117790   9.4325660  57.3676130  63.8889770
   8.4828370  57.3339670  64.0034760   9.6138670  58.2776240  63.6539540
   8.7435910  56.5409610  56.3062630   9.2395030  56.3080480  57.0911510
   8.5451980  55.7021450  55.8900270  10.1723070  55.1770560  58.8400310
  10.0622350  55.0226600  59.7782580  10.9330660  54.6491500  58.5975720
   8.5188790  51.1164690  65.2983310   9.1561010  51.7298830  65.6642500
   8.6663680  51.1525350  64.3532540  11.0613340  53.0078480  52.0806450
  11.9862650  52.8759660  51.8724740  11.0389130  53.0871300  53.0342900
  11.1351830  53.7789140  54.7063160  10.3403330  53.7134260  55.2356070
  11.3395110  54.7139780  54.6948510   8.0770250  67.8180690  58.7001550
   8.6729320  67.4965260  58.0235970   8.3348400  67.3452510  59.4914820
   1.8893270  52.2690880  68.2058410   1.8282160  52.8612710  68.9553820
   2.8293650  52.1616840  68.0608670   4.5267830  51.9260940  67.8450700
   5.1408240  52.2440230  67.1831780   5.0717390  51.4409530  68.4646560
  10.9443010  67.8252570  65.2512540  10.4501290  68.2221440  64.5339670
  10.3356300  67.2001780  65.6449820   5.2675870  50.4893080  64.1719990
   4.3935710  50.8228190  63.9692920   5.1586620  50.0166260  64.9971860
   6.1747850  52.6963950  65.5561710   5.8461210  51.8815710  65.1763440
   7.1230150  52.6533760  65.4327400   8.6282460  68.4675990  62.5299280
   8.1685430  69.2191800  62.1557300   7.9994920  67.7482460  62.4714080
   1.7973680  67.6672720  62.5316390   2.0851490  67.4127020  61.6549400
   2.3096900  67.1150080  63.1221960   3.0150690  51.4062920  63.1112900
   2.2322480  51.8808420  63.3909660   2.7213620  50.5017750  63.0026080
   7.5671760  52.1086020  61.1561990   8.0079850  52.0531120  60.3083590
   7.2979350  53.0244030  61.2272170   9.4310330  51.7401260  59.1670810
   9.3698730  50.7962480  59.0201830  10.2102360  51.8481350  59.7124270
   5.4029890  50.4892120  59.8612000   6.0059260  51.0612330  60.3360520
   4.6622880  51.0531560  59.6385900   8.5464490  50.8913680  55.1352280
   8.7415120  51.7897130  55.4019710   7.7594360  50.6600760  55.6285230
   1.8646040  68.5888820  69.8984590   2.7913350  68.3533090  69.9420550
   1.8496470  69.4160820  69.4170620  10.0991100  68.1314390  56.8958840
  10.2743290  67.4452130  56.2519760   9.4012670  68.6561440  56.5035510
   5.6525110  50.6687150  70.2406940   5.5390560  50.9881760  71.1358460
   6.4694850  51.0699660  69.9444220   8.4323600  67.8158680  69.7225630
   9.2248920  67.3207910  69.5151590   8.7256750  68.4948820  70.3301240
   4.5583260  58.6879620  40.6041680   4.4777310  57.7734230  40.3333390
   4.1447680  59.1846690  39.8981390   2.6901300  60.4658640  42.4850950
   1.9143400  59.9859080  42.7749520   3.3414230  59.7864290  42.3107110
   6.7108730  64.8718830  41.2650080   6.2490260  64.1006070  41.5937250
   7.5234280  64.8984900  41.7702530   2.9372040  67.1576840  40.8854070
   2.3183480  67.6134340  40.3148510   3.7923820  67.3128300  40.4843770
   2.1310290  63.1415830  42.4921110   2.0618570  62.2005770  42.3310240
   2.8930150  63.2317240  43.0643680   3.1615460  55.9486210  42.7190040
   3.5380280  55.0758090  42.6063710   3.0634970  56.2844910  41.8280480
   6.9439580  53.4436650  39.6518380   7.7649200  52.9533220  39.6943860
   6.9773660  54.0334310  40.4050220  11.2339130  55.4603400  46.2162010
  10.5291300  55.8485110  45.6977120  11.4997050  56.1553690  46.8182940
   3.8035390  62.0416080  38.2785980   3.1852660  62.5065530  37.7148700
   4.3158640  62.7343560  38.6955490   7.1801060  55.3837030  42.4245920
   6.4756630  55.6721920  43.0049030   7.5413220  56.1937140  42.0645480
   8.7963840  65.0012160  44.6873400   8.1127360  65.6711270  44.6790070
   9.3358130  65.1992810  43.9218260  10.2487980  54.8291820  42.8155130
   9.3012890  54.8630800  42.9470560  10.5737970  55.6430770  43.2004490
   6.3322580  66.8456290  43.4018580   6.3449740  66.4418580  42.5340840
   5.7797800  67.6203580  43.2980010   7.6268000  63.5672510  38.4908750
   7.5164330  62.6246840  38.6158170   7.6236250  63.9288150  39.3771510
   5.7308020  61.7486130  44.7301190   6.1476810  61.5346240  43.8954650
   6.4547840  62.0058920  45.3009810   3.1688280  59.1937830  37.8471240
   2.2417560  59.1275210  38.0759710   3.3213100  60.1317960  37.7326480
   3.1557360  55.4654830  34.8438400   2.2161030  55.6268790  34.9290860
   3.4740620  56.1840510  34.2974390   9.6770120  60.1473350  44.8217430
   8.8488750  60.2166440  44.3467560  10.2720600  60.7327660  44.3533260
   7.1985570  60.7558130  38.3506490   6.5797990  60.4177680  37.7032790
   7.1810020  60.1117890  39.0585680   6.6412130  56.9342670  45.7672300
   6.2283310  57.7596380  46.0212290   5.9088080  56.3487710  45.5748660
   7.3312230  66.9802000  46.4553280   6.8542790  67.7874190  46.2625890
   6.6474020  66.3280330  46.6079490   5.3750270  59.9944940  35.3579240
   5.8143550  59.1567370  35.2117060   6.0878690  60.6274340  35.4443380
   3.4845650  64.9341010  39.3260480   3.9241560  65.6765340  38.9115870
   3.4232540  65.1767580  40.2499440   8.9567410  51.2487750  33.6720280
   8.6440070  51.3414580  34.5719350   9.7179880  51.8268780  33.6217710
  10.9111440  66.7413940  51.5244670  11.3871160  67.2196830  52.2033750
  11.5318600  66.6731430  50.7990170  10.3144690  63.9326790  48.6844680
  10.4407750  63.6938670  47.7661860  10.3566070  63.1011330  49.1566760
   4.1761430  67.6354790  47.2539490   4.6906100  67.5462800  48.0561920
   3.3330510  67.9814490  47.5467400   6.1515830  67.9210130  36.6823490
   5.9916970  67.6313070  37.5805320   5.9862540  67.1450260  36.1468720
   5.8541960  65.4297690  35.2421490   5.1607120  65.4274980  34.5823770
   6.5964820  65.0057010  34.8115660   5.4191890  67.0560400  39.3169980
   5.8748840  66.2749780  39.6308600   5.7584410  67.7667220  39.8611160
  10.1668700  55.9859250  49.6494420   9.5512970  56.4938920  49.1209880
   9.8465120  55.0857580  49.5920360   2.2283020  54.8251140  47.1156610
   1.7662390  55.0334160  47.9276550   1.8261130  54.0110490  46.8127280
   7.2287530  56.0460090  48.2453270   6.3781120  55.7465840  48.5662340
   7.0689320  56.2902100  47.3337090   4.3237240  57.5461840  50.3452060
   4.6490650  56.7125590  50.0054290   5.1117570  58.0690360  50.4930390
   4.9625190  57.0879560  37.8393190   4.3634080  57.8115360  37.6556810
   5.5104800  57.0256340  37.0569640   3.5690060  55.7243100  39.8696470
   3.9619630  56.0415300  39.0565160   3.9306910  54.8454980  39.9840990
   1.8782230  54.4750410  51.1293330   1.1880550  54.2822610  51.7639420
   2.6214530  54.7585050  51.6617630   4.1545200  58.3148850  43.9647250
   3.4226320  58.8235660  44.3137350   3.7569540  57.4978830  43.6636030
   4.6171110  53.7682530  43.3770190   4.6343850  54.2191180  44.2212040
   4.3686690  52.8688170  43.5903630   8.0441860  51.1814710  49.2156570
   8.3687630  50.4504370  49.7414550   8.0798370  50.8628350  48.3137560
   7.9699700  61.2939820  42.8242600   8.6898820  61.7895110  42.4338710
   7.7681520  60.6157710  42.1796470   3.4309640  52.6877780  36.9671990
   2.6174250  52.1890950  36.8917300   3.2371590  53.5276030  36.5508340
   3.3518500  61.3648880  48.7111600   3.2855810  60.4444550  48.4569190
   2.7223640  61.4624320  49.4256240   6.1458030  57.0597430  35.2634150
   7.0337650  57.3714660  35.0885490   6.1163120  56.1869680  34.8714730
   2.1418620  63.2321120  35.9422320   2.4834320  63.9763350  35.4465640
   1.3131330  63.5452240  36.3047150   3.2835230  64.1869450  48.4615400
   3.2979770  63.2550410  48.2434310   2.5760330  64.2729210  49.1005170
   8.4172300  58.3709270  34.7314010   8.3336020  58.8023490  33.8810450
   9.1366490  58.8307620  35.1640830   9.4946440  60.8276790  47.8083980
   8.7694630  61.4205570  47.6113370  10.0221900  60.8200330  47.0097350
   9.4459550  65.2251530  37.4596140   8.8035710  64.5707150  37.7339860
   9.0590210  65.6306620  36.6836810   5.0246030  62.5536960  41.3067830
   5.3769850  61.9565090  40.6469200   4.1408360  62.2281190  41.4776080
   2.7169130  65.8287020  45.5555900   3.3611350  66.0346400  46.2329320
   3.0798570  65.0675420  45.1026750   3.9901210  63.8319370  44.2733350
   4.6323440  63.1312530  44.3865520   4.5150560  64.6117810  44.0930240
   7.8356930  64.1167990  33.9972490   7.6094510  63.3998430  34.5897130
   7.4453130  63.8680430  33.1594240   5.7638830  64.6314270  47.4769410
   6.0995070  65.2180960  48.1547330   4.8439170  64.5006980  47.7067200
   7.4173180  62.0339930  35.6586650   7.1294880  62.4952620  36.4464530
   8.2125350  61.5737700  35.9270870   4.8081010  54.9131760  46.0094270
   5.1761830  54.0926970  46.3373840   3.9479210  54.9733650  46.4249920
   8.1743040  53.8688700  36.8181830   7.5456200  53.9734370  36.1040060
   7.6794960  54.0885480  37.6075710   2.6201180  65.5894290  34.2515810
   2.7213160  65.3858280  33.3217790   1.7202920  65.3352570  34.4563590
   1.7683000  57.5671350  46.2332240   2.2668250  58.0417170  46.8984090
   1.9105950  56.6434870  46.4402270   4.1742500  52.8725310  39.6735500
   4.0510280  52.8911440  38.7245010   5.1227060  52.9204250  39.7933900
   8.9749860  53.7839310  47.0760630   8.4723460  54.5244710  47.4154440
   9.7906520  54.1723310  46.7597420   7.2671870  59.0272490  40.5221990
   6.3262010  59.0422720  40.6969680   7.5815940  58.2408450  40.9682290
   9.2697450  66.1981340  42.1976250   9.3944870  67.0212510  42.6700060
  10.1363010  65.9872070  41.8500400   4.5837890  63.5838490  51.0054370
   3.9776050  63.6070090  50.2650120   4.2792000  62.8521530  51.5421620
   6.0138260  67.3118780  49.6163780   6.9660010  67.2276800  49.5664020
   5.8666480  67.9760490  50.2897570   8.9047460  66.6912990  35.1155690
   8.6188970  66.2778130  34.3009870   8.7067010  67.6200700  34.9956210
   3.6097420  61.7466300  34.1603290   3.0607520  62.1935600  34.8046030
   4.2316680  61.2415550  34.6840960   7.6632360  63.1008400  50.0925550
   8.4041830  63.4384160  49.5893010   6.9005040  63.2700460  49.5395320
   1.7900180  59.7294830  33.3045690   2.3105840  59.0143850  32.9386840
   2.4368580  60.3680700  33.6046200   6.3378020  61.1523230  48.6280760
   6.7519040  61.3068310  49.4771180   5.4029020  61.2778450  48.7906540
   6.8100190  58.4919390  50.6319910   7.3920960  57.7371710  50.5440390
   6.9861960  59.0226830  49.8551390   3.4357150  58.8359890  47.9814530
   3.5553360  58.2401030  48.7209370   4.2951150  58.8729580  47.5615830
   5.7745050  59.3897080  46.5577040   5.2480270  59.9139700  45.9542180
   6.1176390  60.0224470  47.1886770   5.0219350  54.9947050  49.4723370
   4.3334870  54.3328590  49.4073360   5.7425370  54.5485320  49.9171830
   5.6519750  51.5898680  35.5313630   5.9322040  50.7466580  35.8873050
   4.8785480  51.8221790  36.0452380   2.3548210  67.8106440  35.5947430
   3.2499000  68.1491410  35.6166190   2.3865840  67.0885850  34.9671710
   9.3342560  66.3410110  48.3013630   8.7344550  66.4002670  47.5577550
   9.4636460  65.4015090  48.4310480  10.5744010  64.0827930  33.6383340
   9.7436970  64.1504580  34.1090570  10.7515840  64.9732050  33.3350200
  10.0300470  60.8275410  36.1417540  10.7919380  61.3972060  36.2477230
  10.0454840  60.2602610  36.9125850  11.0360440  61.6825510  40.9859470
  11.4069270  60.8992830  40.5795440  11.6762370  62.3714610  40.8076770
   8.0194200  63.0662090  46.3989790   7.2054040  63.4959250  46.6615580
   8.4268400  63.6780500  45.7858840  10.0819640  61.1209780  33.2990060
  10.3568480  62.0288660  33.1709280   9.8930380  61.0572310  34.2352050
   6.4795250  54.1454630  34.5943690   6.8980130  53.9585610  33.7540350
   6.1731310  53.2933680  34.9046620   9.9784980  59.0578770  38.2919490
   9.6028580  58.2906700  37.8600780   9.2488100  59.4401470  38.7794420
   9.3684600  58.2050290  47.9259010   9.1370690  57.9763040  47.0256960
   9.6289150  59.1249840  47.8803900   7.8072670  53.4306720  50.7038710
   8.6842850  53.4390120  51.0872710   7.8193510  52.6937560  50.0931060
   9.2535940  57.2836260  41.5926730   9.7773420  56.7898910  40.9616900
   9.8395360  57.4186620  42.3374300   9.4325660  57.3676130  45.1146280
   8.4828370  57.3339670  45.2291270   9.6138670  58.2776240  44.8796050
   8.7435910  56.5409610  37.5319140   9.2395030  56.3080480  38.3168020
   8.5451980  55.7021450  37.1156780  10.1723070  55.1770560  40.0656820
  10.0622350  55.0226600  41.0039090  10.9330660  54.6491500  39.8232230
   8.5188790  51.1164690  46.5239820   9.1561010  51.7298830  46.8899010
   8.6663680  51.1525350  45.5789050  11.0613340  53.0078480  33.3062960
  11.9862650  52.8759660  33.0981250  11.0389130  53.0871300  34.2599410
  11.1351830  53.7789140  35.9319670  10.3403330  53.7134260  36.4612580
  11.3395110  54.7139780  35.9205020   8.0770250  67.8180690  39.9258060
   8.6729320  67.4965260  39.2492480   8.3348400  67.3452510  40.7171330
   1.8893270  52.2690880  49.4314920   1.8282160  52.8612710  50.1810330
   2.8293650  52.1616840  49.2865180   4.5267830  51.9260940  49.0707210
   5.1408240  52.2440230  48.4088290   5.0717390  51.4409530  49.6903070
  10.9443010  67.8252570  46.4769050  10.4501290  68.2221440  45.7596180
  10.3356300  67.2001780  46.8706330   5.2675870  50.4893080  45.3976500
   4.3935710  50.8228190  45.1949430   5.1586620  50.0166260  46.2228370
   6.1747850  52.6963950  46.7818220   5.8461210  51.8815710  46.4019950
   7.1230150  52.6533760  46.6583910   8.6282460  68.4675990  43.7555790
   8.1685430  69.2191800  43.3813810   7.9994920  67.7482460  43.6970590
   1.7973680  67.6672720  43.7572900   2.0851490  67.4127020  42.8805910
   2.3096900  67.1150080  44.3478470   3.0150690  51.4062920  44.3369410
   2.2322480  51.8808420  44.6166170   2.7213620  50.5017750  44.2282590
   7.5671760  52.1086020  42.3818500   8.0079850  52.0531120  41.5340100
   7.2979350  53.0244030  42.4528680   9.4310330  51.7401260  40.3927320
   9.3698730  50.7962480  40.2458340  10.2102360  51.8481350  40.9380780
   5.4029890  50.4892120  41.0868510   6.0059260  51.0612330  41.5617030
   4.6622880  51.0531560  40.8642410   8.5464490  50.8913680  36.3608790
   8.7415120  51.7897130  36.6276220   7.7594360  50.6600760  36.8541740
   1.8646040  68.5888820  51.1241100   2.7913350  68.3533090  51.1677060
   1.8496470  69.4160820  50.6427130  10.0991100  68.1314390  38.1215350
  10.2743290  67.4452130  37.4776270   9.4012670  68.6561440  37.7292020
   5.6525110  50.6687150  51.4663450   5.5390560  50.9881760  52.3614970
   6.4694850  51.0699660  51.1700730   8.4323600  67.8158680  50.9482140
   9.2248920  67.3207910  50.7408100   8.7256750  68.4948820  51.5557750
   4.5583260  58.6879620  21.8298190   4.4777310  57.7734230  21.5589900
   4.1447680  59.1846690  21.1237900   2.6901300  60.4658640  23.7107460
   1.9143400  59.9859080  24.0006030   3.3414230  59.7864290  23.5363620
   6.7108730  64.8718830  22.4906590   6.2490260  64.1006070  22.8193760
   7.5234280  64.8984900  22.9959040   2.9372040  67.1576840  22.1110580
   2.3183480  67.6134340  21.5405020   3.7923820  67.3128300  21.7100280
   2.1310290  63.1415830  23.7177620   2.0618570  62.2005770  23.5566750
   2.8930150  63.2317240  24.2900190   3.1615460  55.9486210  23.9446550
   3.5380280  55.0758090  23.8320220   3.0634970  56.2844910  23.0536990
   6.9439580  53.4436650  20.8774890   7.7649200  52.9533220  20.9200370
   6.9773660  54.0334310  21.6306730  11.2339130  55.4603400  27.4418520
  10.5291300  55.8485110  26.9233630  11.4997050  56.1553690  28.0439450
   3.8035390  62.0416080  19.5042490   3.1852660  62.5065530  18.9405210
   4.3158640  62.7343560  19.9212000   7.1801060  55.3837030  23.6502430
   6.4756630  55.6721920  24.2305540   7.5413220  56.1937140  23.2901990
   8.7963840  65.0012160  25.9129910   8.1127360  65.6711270  25.9046580
   9.3358130  65.1992810  25.1474770  10.2487980  54.8291820  24.0411640
   9.3012890  54.8630800  24.1727070  10.5737970  55.6430770  24.4261000
   6.3322580  66.8456290  24.6275090   6.3449740  66.4418580  23.7597350
   5.7797800  67.6203580  24.5236520   7.6268000  63.5672510  19.7165260
   7.5164330  62.6246840  19.8414680   7.6236250  63.9288150  20.6028020
   5.7308020  61.7486130  25.9557700   6.1476810  61.5346240  25.1211160
   6.4547840  62.0058920  26.5266320   3.1688280  59.1937830  19.0727750
   2.2417560  59.1275210  19.3016220   3.3213100  60.1317960  18.9582990
   3.1557360  55.4654830  16.0694910   2.2161030  55.6268790  16.1547370
   3.4740620  56.1840510  15.5230900   9.6770120  60.1473350  26.0473940
   8.8488750  60.2166440  25.5724070  10.2720600  60.7327660  25.5789770
   7.1985570  60.7558130  19.5763000   6.5797990  60.4177680  18.9289300
   7.1810020  60.1117890  20.2842190   6.6412130  56.9342670  26.9928810
   6.2283310  57.7596380  27.2468800   5.9088080  56.3487710  26.8005170
   7.3312230  66.9802000  27.6809790   6.8542790  67.7874190  27.4882400
   6.6474020  66.3280330  27.8336000   5.3750270  59.9944940  16.5835750
   5.8143550  59.1567370  16.4373570   6.0878690  60.6274340  16.6699890
   3.4845650  64.9341010  20.5516990   3.9241560  65.6765340  20.1372380
   3.4232540  65.1767580  21.4755950   8.9567410  51.2487750  14.8976790
   8.6440070  51.3414580  15.7975860   9.7179880  51.8268780  14.8474220
  10.9111440  66.7413940  32.7501180  11.3871160  67.2196830  33.4290260
  11.5318600  66.6731430  32.0246680  10.3144690  63.9326790  29.9101190
  10.4407750  63.6938670  28.9918370  10.3566070  63.1011330  30.3823270
   4.1761430  67.6354790  28.4796000   4.6906100  67.5462800  29.2818430
   3.3330510  67.9814490  28.7723910   6.1515830  67.9210130  17.9080000
   5.9916970  67.6313070  18.8061830   5.9862540  67.1450260  17.3725230
   5.8541960  65.4297690  16.4678000   5.1607120  65.4274980  15.8080280
   6.5964820  65.0057010  16.0372170   5.4191890  67.0560400  20.5426490
   5.8748840  66.2749780  20.8565110   5.7584410  67.7667220  21.0867670
  10.1668700  55.9859250  30.8750930   9.5512970  56.4938920  30.3466390
   9.8465120  55.0857580  30.8176870   2.2283020  54.8251140  28.3413120
   1.7662390  55.0334160  29.1533060   1.8261130  54.0110490  28.0383790
   7.2287530  56.0460090  29.4709780   6.3781120  55.7465840  29.7918850
   7.0689320  56.2902100  28.5593600   4.3237240  57.5461840  31.5708570
   4.6490650  56.7125590  31.2310800   5.1117570  58.0690360  31.7186900
   4.9625190  57.0879560  19.0649700   4.3634080  57.8115360  18.8813320
   5.5104800  57.0256340  18.2826150   3.5690060  55.7243100  21.0952980
   3.9619630  56.0415300  20.2821670   3.9306910  54.8454980  21.2097500
   1.8782230  54.4750410  32.3549840   1.1880550  54.2822610  32.9895930
   2.6214530  54.7585050  32.8874140   4.1545200  58.3148850  25.1903760
   3.4226320  58.8235660  25.5393860   3.7569540  57.4978830  24.8892540
   4.6171110  53.7682530  24.6026700   4.6343850  54.2191180  25.4468550
   4.3686690  52.8688170  24.8160140   8.0441860  51.1814710  30.4413080
   8.3687630  50.4504370  30.9671060   8.0798370  50.8628350  29.5394070
   7.9699700  61.2939820  24.0499110   8.6898820  61.7895110  23.6595220
   7.7681520  60.6157710  23.4052980   3.4309640  52.6877780  18.1928500
   2.6174250  52.1890950  18.1173810   3.2371590  53.5276030  17.7764850
   3.3518500  61.3648880  29.9368110   3.2855810  60.4444550  29.6825700
   2.7223640  61.4624320  30.6512750   6.1458030  57.0597430  16.4890660
   7.0337650  57.3714660  16.3142000   6.1163120  56.1869680  16.0971240
   2.1418620  63.2321120  17.1678830   2.4834320  63.9763350  16.6722150
   1.3131330  63.5452240  17.5303660   3.2835230  64.1869450  29.6871910
   3.2979770  63.2550410  29.4690820   2.5760330  64.2729210  30.3261680
   8.4172300  58.3709270  15.9570520   8.3336020  58.8023490  15.1066960
   9.1366490  58.8307620  16.3897340   9.4946440  60.8276790  29.0340490
   8.7694630  61.4205570  28.8369880  10.0221900  60.8200330  28.2353860
   9.4459550  65.2251530  18.6852650   8.8035710  64.5707150  18.9596370
   9.0590210  65.6306620  17.9093320   5.0246030  62.5536960  22.5324340
   5.3769850  61.9565090  21.8725710   4.1408360  62.2281190  22.7032590
   2.7169130  65.8287020  26.7812410   3.3611350  66.0346400  27.4585830
   3.0798570  65.0675420  26.3283260   3.9901210  63.8319370  25.4989860
   4.6323440  63.1312530  25.6122030   4.5150560  64.6117810  25.3186750
   7.8356930  64.1167990  15.2229000   7.6094510  63.3998430  15.8153640
   7.4453130  63.8680430  14.3850750   5.7638830  64.6314270  28.7025920
   6.0995070  65.2180960  29.3803840   4.8439170  64.5006980  28.9323710
   7.4173180  62.0339930  16.8843160   7.1294880  62.4952620  17.6721040
   8.2125350  61.5737700  17.1527380   4.8081010  54.9131760  27.2350780
   5.1761830  54.0926970  27.5630350   3.9479210  54.9733650  27.6506430
   8.1743040  53.8688700  18.0438340   7.5456200  53.9734370  17.3296570
   7.6794960  54.0885480  18.8332220   2.6201180  65.5894290  15.4772320
   2.7213160  65.3858280  14.5474300   1.7202920  65.3352570  15.6820100
   1.7683000  57.5671350  27.4588750   2.2668250  58.0417170  28.1240600
   1.9105950  56.6434870  27.6658780   4.1742500  52.8725310  20.8992010
   4.0510280  52.8911440  19.9501520   5.1227060  52.9204250  21.0190410
   8.9749860  53.7839310  28.3017140   8.4723460  54.5244710  28.6410950
   9.7906520  54.1723310  27.9853930   7.2671870  59.0272490  21.7478500
   6.3262010  59.0422720  21.9226190   7.5815940  58.2408450  22.1938800
   9.2697450  66.1981340  23.4232760   9.3944870  67.0212510  23.8956570
  10.1363010  65.9872070  23.0756910   4.5837890  63.5838490  32.2310880
   3.9776050  63.6070090  31.4906630   4.2792000  62.8521530  32.7678130
   6.0138260  67.3118780  30.8420290   6.9660010  67.2276800  30.7920530
   5.8666480  67.9760490  31.5154080   8.9047460  66.6912990  16.3412200
   8.6188970  66.2778130  15.5266380   8.7067010  67.6200700  16.2212720
   3.6097420  61.7466300  15.3859800   3.0607520  62.1935600  16.0302540
   4.2316680  61.2415550  15.9097470   7.6632360  63.1008400  31.3182060
   8.4041830  63.4384160  30.8149520   6.9005040  63.2700460  30.7651830
   1.7900180  59.7294830  14.5302200   2.3105840  59.0143850  14.1643350
   2.4368580  60.3680700  14.8302710   6.3378020  61.1523230  29.8537270
   6.7519040  61.3068310  30.7027690   5.4029020  61.2778450  30.0163050
   6.8100190  58.4919390  31.8576420   7.3920960  57.7371710  31.7696900
   6.9861960  59.0226830  31.0807900   3.4357150  58.8359890  29.2071040
   3.5553360  58.2401030  29.9465880   4.2951150  58.8729580  28.7872340
   5.7745050  59.3897080  27.7833550   5.2480270  59.9139700  27.1798690
   6.1176390  60.0224470  28.4143280   5.0219350  54.9947050  30.6979880
   4.3334870  54.3328590  30.6329870   5.7425370  54.5485320  31.1428340
   5.6519750  51.5898680  16.7570140   5.9322040  50.7466580  17.1129560
   4.8785480  51.8221790  17.2708890   2.3548210  67.8106440  16.8203940
   3.2499000  68.1491410  16.8422700   2.3865840  67.0885850  16.1928220
   9.3342560  66.3410110  29.5270140   8.7344550  66.4002670  28.7834060
   9.4636460  65.4015090  29.6566990  10.5744010  64.0827930  14.8639850
   9.7436970  64.1504580  15.3347080  10.7515840  64.9732050  14.5606710
  10.0300470  60.8275410  17.3674050  10.7919380  61.3972060  17.4733740
  10.0454840  60.2602610  18.1382360  11.0360440  61.6825510  22.2115980
  11.4069270  60.8992830  21.8051950  11.6762370  62.3714610  22.0333280
   8.0194200  63.0662090  27.6246300   7.2054040  63.4959250  27.8872090
   8.4268400  63.6780500  27.0115350  10.0819640  61.1209780  14.5246570
  10.3568480  62.0288660  14.3965790   9.8930380  61.0572310  15.4608560
   6.4795250  54.1454630  15.8200200   6.8980130  53.9585610  14.9796860
   6.1731310  53.2933680  16.1303130   9.9784980  59.0578770  19.5176000
   9.6028580  58.2906700  19.0857290   9.2488100  59.4401470  20.0050930
   9.3684600  58.2050290  29.1515520   9.1370690  57.9763040  28.2513470
   9.6289150  59.1249840  29.1060410   7.8072670  53.4306720  31.9295220
   8.6842850  53.4390120  32.3129220   7.8193510  52.6937560  31.3187570
   9.2535940  57.2836260  22.8183240   9.7773420  56.7898910  22.1873410
   9.8395360  57.4186620  23.5630810   9.4325660  57.3676130  26.3402790
   8.4828370  57.3339670  26.4547780   9.6138670  58.2776240  26.1052560
   8.7435910  56.5409610  18.7575650   9.2395030  56.3080480  19.5424530
   8.5451980  55.7021450  18.3413290  10.1723070  55.1770560  21.2913330
  10.0622350  55.0226600  22.2295600  10.9330660  54.6491500  21.0488740
   8.5188790  51.1164690  27.7496330   9.1561010  51.7298830  28.1155520
   8.6663680  51.1525350  26.8045560  11.0613340  53.0078480  14.5319470
  11.9862650  52.8759660  14.3237760  11.0389130  53.0871300  15.4855920
  11.1351830  53.7789140  17.1576180  10.3403330  53.7134260  17.6869090
  11.3395110  54.7139780  17.1461530   8.0770250  67.8180690  21.1514570
   8.6729320  67.4965260  20.4748990   8.3348400  67.3452510  21.9427840
   1.8893270  52.2690880  30.6571430   1.8282160  52.8612710  31.4066840
   2.8293650  52.1616840  30.5121690   4.5267830  51.9260940  30.2963720
   5.1408240  52.2440230  29.6344800   5.0717390  51.4409530  30.9159580
  10.9443010  67.8252570  27.7025560  10.4501290  68.2221440  26.9852690
  10.3356300  67.2001780  28.0962840   5.2675870  50.4893080  26.6233010
   4.3935710  50.8228190  26.4205940   5.1586620  50.0166260  27.4484880
   6.1747850  52.6963950  28.0074730   5.8461210  51.8815710  27.6276460
   7.1230150  52.6533760  27.8840420   8.6282460  68.4675990  24.9812300
   8.1685430  69.2191800  24.6070320   7.9994920  67.7482460  24.9227100
   1.7973680  67.6672720  24.9829410   2.0851490  67.4127020  24.1062420
   2.3096900  67.1150080  25.5734980   3.0150690  51.4062920  25.5625920
   2.2322480  51.8808420  25.8422680   2.7213620  50.5017750  25.4539100
   7.5671760  52.1086020  23.6075010   8.0079850  52.0531120  22.7596610
   7.2979350  53.0244030  23.6785190   9.4310330  51.7401260  21.6183830
   9.3698730  50.7962480  21.4714850  10.2102360  51.8481350  22.1637290
   5.4029890  50.4892120  22.3125020   6.0059260  51.0612330  22.7873540
   4.6622880  51.0531560  22.0898920   8.5464490  50.8913680  17.5865300
   8.7415120  51.7897130  17.8532730   7.7594360  50.6600760  18.0798250
   1.8646040  68.5888820  32.3497610   2.7913350  68.3533090  32.3933570
   1.8496470  69.4160820  31.8683640  10.0991100  68.1314390  19.3471860
  10.2743290  67.4452130  18.7032780   9.4012670  68.6561440  18.9548530
   5.6525110  50.6687150  32.6919960   5.5390560  50.9881760  33.5871480
   6.4694850  51.0699660  32.3957240   8.4323600  67.8158680  32.1738650
   9.2248920  67.3207910  31.9664610   8.7256750  68.4948820  32.7814260
   4.5583260  58.6879620   3.0554700   4.4777310  57.7734230   2.7846410
   4.1447680  59.1846690   2.3494410   2.6901300  60.4658640   4.9363970
   1.9143400  59.9859080   5.2262540   3.3414230  59.7864290   4.7620130
   6.7108730  64.8718830   3.7163100   6.2490260  64.1006070   4.0450270
   7.5234280  64.8984900   4.2215550   2.9372040  67.1576840   3.3367090
   2.3183480  67.6134340   2.7661530   3.7923820  67.3128300   2.9356790
   2.1310290  63.1415830   4.9434130   2.0618570  62.2005770   4.7823260
   2.8930150  63.2317240   5.5156700   3.1615460  55.9486210   5.1703060
   3.5380280  55.0758090   5.0576730   3.0634970  56.2844910   4.2793500
   6.9439580  53.4436650   2.1031400   7.7649200  52.9533220   2.1456880
   6.9773660  54.0334310   2.8563240  11.2339130  55.4603400   8.6675030
  10.5291300  55.8485110   8.1490140  11.4997050  56.1553690   9.2695960
   7.1801060  55.3837030   4.8758940   6.4756630  55.6721920   5.4562050
   7.5413220  56.1937140   4.5158500   8.7963840  65.0012160   7.1386420
   8.1127360  65.6711270   7.1303090   9.3358130  65.1992810   6.3731280
  10.2487980  54.8291820   5.2668150   9.3012890  54.8630800   5.3983580
  10.5737970  55.6430770   5.6517510   6.3322580  66.8456290   5.8531600
   6.3449740  66.4418580   4.9853860   5.7797800  67.6203580   5.7493030
   5.7308020  61.7486130   7.1814210   6.1476810  61.5346240   6.3467670
   6.4547840  62.0058920   7.7522830   9.6770120  60.1473350   7.2730450
   8.8488750  60.2166440   6.7980580  10.2720600  60.7327660   6.8046280
   6.6412130  56.9342670   8.2185320   6.2283310  57.7596380   8.4725310
   5.9088080  56.3487710   8.0261680   7.3312230  66.9802000   8.9066300
   6.8542790  67.7874190   8.7138910   6.6474020  66.3280330   9.0592510
  10.9111440  66.7413940  13.9757690  11.3871160  67.2196830  14.6546770
  11.5318600  66.6731430  13.2503190  10.3144690  63.9326790  11.1357700
  10.4407750  63.6938670  10.2174880  10.3566070  63.1011330  11.6079780
   4.1761430  67.6354790   9.7052510   4.6906100  67.5462800  10.5074940
   3.3330510  67.9814490   9.9980420   5.4191890  67.0560400   1.7683000
   5.8748840  66.2749780   2.0821620   5.7584410  67.7667220   2.3124180
  10.1668700  55.9859250  12.1007440   9.5512970  56.4938920  11.5722900
   9.8465120  55.0857580  12.0433380   2.2283020  54.8251140   9.5669630
   1.7662390  55.0334160  10.3789570   1.8261130  54.0110490   9.2640300
   7.2287530  56.0460090  10.6966290   6.3781120  55.7465840  11.0175360
   7.0689320  56.2902100   9.7850110   4.3237240  57.5461840  12.7965080
   4.6490650  56.7125590  12.4567310   5.1117570  58.0690360  12.9443410
   1.8782230  54.4750410  13.5806350   1.1880550  54.2822610  14.2152440
   2.6214530  54.7585050  14.1130650   4.1545200  58.3148850   6.4160270
   3.4226320  58.8235660   6.7650370   3.7569540  57.4978830   6.1149050
   4.6171110  53.7682530   5.8283210   4.6343850  54.2191180   6.6725060
   4.3686690  52.8688170   6.0416650   8.0441860  51.1814710  11.6669590
   8.3687630  50.4504370  12.1927570   8.0798370  50.8628350  10.7650580
   7.9699700  61.2939820   5.2755620   8.6898820  61.7895110   4.8851730
   7.7681520  60.6157710   4.6309490   3.3518500  61.3648880  11.1624620
   3.2855810  60.4444550  10.9082210   2.7223640  61.4624320  11.8769260
   3.2835230  64.1869450  10.9128420   3.2979770  63.2550410  10.6947330
   2.5760330  64.2729210  11.5518190   9.4946440  60.8276790  10.2597000
   8.7694630  61.4205570  10.0626390  10.0221900  60.8200330   9.4610370
   5.0246030  62.5536960   3.7580850   5.3769850  61.9565090   3.0982220
   4.1408360  62.2281190   3.9289100   2.7169130  65.8287020   8.0068920
   3.3611350  66.0346400   8.6842340   3.0798570  65.0675420   7.5539770
   3.9901210  63.8319370   6.7246370   4.6323440  63.1312530   6.8378540
   4.5150560  64.6117810   6.5443260   5.7638830  64.6314270   9.9282430
   6.0995070  65.2180960  10.6060350   4.8439170  64.5006980  10.1580220
   4.8081010  54.9131760   8.4607290   5.1761830  54.0926970   8.7886860
   3.9479210  54.9733650   8.8762940   1.7683000  57.5671350   8.6845260
   2.2668250  58.0417170   9.3497110   1.9105950  56.6434870   8.8915290
   8.9749860  53.7839310   9.5273650   8.4723460  54.5244710   9.8667460
   9.7906520  54.1723310   9.2110440   7.2671870  59.0272490   2.9735010
   6.3262010  59.0422720   3.1482700   7.5815940  58.2408450   3.4195310
   9.2697450  66.1981340   4.6489270   9.3944870  67.0212510   5.1213080
  10.1363010  65.9872070   4.3013420   4.5837890  63.5838490  13.4567390
   3.9776050  63.6070090  12.7163140   4.2792000  62.8521530  13.9934640
   6.0138260  67.3118780  12.0676800   6.9660010  67.2276800  12.0177040
   5.8666480  67.9760490  12.7410590   7.6632360  63.1008400  12.5438570
   8.4041830  63.4384160  12.0406030   6.9005040  63.2700460  11.9908340
   6.3378020  61.1523230  11.0793780   6.7519040  61.3068310  11.9284200
   5.4029020  61.2778450  11.2419560   6.8100190  58.4919390  13.0832930
   7.3920960  57.7371710  12.9953410   6.9861960  59.0226830  12.3064410
   3.4357150  58.8359890  10.4327550   3.5553360  58.2401030  11.1722390
   4.2951150  58.8729580  10.0128850   5.7745050  59.3897080   9.0090060
   5.2480270  59.9139700   8.4055200   6.1176390  60.0224470   9.6399790
   5.0219350  54.9947050  11.9236390   4.3334870  54.3328590  11.8586380
   5.7425370  54.5485320  12.3684850   9.3342560  66.3410110  10.7526650
   8.7344550  66.4002670  10.0090570   9.4636460  65.4015090  10.8823500
  11.0360440  61.6825510   3.4372490  11.4069270  60.8992830   3.0308460
  11.6762370  62.3714610   3.2589790   8.0194200  63.0662090   8.8502810
   7.2054040  63.4959250   9.1128600   8.4268400  63.6780500   8.2371860
   9.3684600  58.2050290  10.3772030   9.1370690  57.9763040   9.4769980
   9.6289150  59.1249840  10.3316920   7.8072670  53.4306720  13.1551730
   8.6842850  53.4390120  13.5385730   7.8193510  52.6937560  12.5444080
   9.2535940  57.2836260   4.0439750   9.7773420  56.7898910   3.4129920
   9.8395360  57.4186620   4.7887320   9.4325660  57.3676130   7.5659300
   8.4828370  57.3339670   7.6804290   9.6138670  58.2776240   7.3309070
  10.1723070  55.1770560   2.5169840  10.0622350  55.0226600   3.4552110
  10.9330660  54.6491500   2.2745250   8.5188790  51.1164690   8.9752840
   9.1561010  51.7298830   9.3412030   8.6663680  51.1525350   8.0302070
   8.0770250  67.8180690   2.3771080   8.6729320  67.4965260   1.7005500
   8.3348400  67.3452510   3.1684350   1.8893270  52.2690880  11.8827940
   1.8282160  52.8612710  12.6323350   2.8293650  52.1616840  11.7378200
   4.5267830  51.9260940  11.5220230   5.1408240  52.2440230  10.8601310
   5.0717390  51.4409530  12.1416090  10.9443010  67.8252570   8.9282070
  10.4501290  68.2221440   8.2109200  10.3356300  67.2001780   9.3219350
   5.2675870  50.4893080   7.8489520   4.3935710  50.8228190   7.6462450
   5.1586620  50.0166260   8.6741390   6.1747850  52.6963950   9.2331240
   5.8461210  51.8815710   8.8532970   7.1230150  52.6533760   9.1096930
   8.6282460  68.4675990   6.2068810   8.1685430  69.2191800   5.8326830
   7.9994920  67.7482460   6.1483610   1.7973680  67.6672720   6.2085920
   2.0851490  67.4127020   5.3318930   2.3096900  67.1150080   6.7991490
   3.0150690  51.4062920   6.7882430   2.2322480  51.8808420   7.0679190
   2.7213620  50.5017750   6.6795610   7.5671760  52.1086020   4.8331520
   8.0079850  52.0531120   3.9853120   7.2979350  53.0244030   4.9041700
   9.4310330  51.7401260   2.8440340   9.3698730  50.7962480   2.6971360
  10.2102360  51.8481350   3.3893800   5.4029890  50.4892120   3.5381530
   6.0059260  51.0612330   4.0130050   4.6622880  51.0531560   3.3155430
   1.8646040  68.5888820  13.5754120   2.7913350  68.3533090  13.6190080
   1.8496470  69.4160820  13.0940150   5.6525110  50.6687150  13.9176470
   5.5390560  50.9881760  14.8127990   6.4694850  51.0699660  13.6213750
   8.4323600  67.8158680  13.3995160   9.2248920  67.3207910  13.1921120
   8.7256750  68.4948820  14.0070770   4.5583260  39.9136130  96.9272150
   4.4777310  38.9990740  96.6563860   4.1447680  40.4103200  96.2211860
   2.6901300  41.6915150  98.8081420   1.9143400  41.2115590  99.0979990
   3.3414230  41.0120800  98.6337580   6.7108730  46.0975340  97.5880550
   6.2490260  45.3262580  97.9167720   7.5234280  46.1241410  98.0933000
   2.9372040  48.3833350  97.2084540   2.3183480  48.8390850  96.6378980
   3.7923820  48.5384810  96.8074240   2.1310290  44.3672340  98.8151580
   2.0618570  43.4262280  98.6540710   2.8930150  44.4573750  99.3874150
   3.1615460  37.1742720  99.0420510   3.5380280  36.3014600  98.9294180
   3.0634970  37.5101420  98.1510950   6.9439580  34.6693160  95.9748850
   7.7649200  34.1789730  96.0174330   6.9773660  35.2590820  96.7280690
   3.8035390  43.2672590  94.6016450   3.1852660  43.7322040  94.0379170
   4.3158640  43.9600070  95.0185960   7.1801060  36.6093540  98.7476390
   6.4756630  36.8978430  99.3279500   7.5413220  37.4193650  98.3875950
   8.7963840  46.2268670 101.0103870   8.1127360  46.8967780 101.0020540
   9.3358130  46.4249320 100.2448730  10.2487980  36.0548330  99.1385600
   9.3012890  36.0887310  99.2701030  10.5737970  36.8687280  99.5234960
   6.3322580  48.0712800  99.7249050   6.3449740  47.6675090  98.8571310
   5.7797800  48.8460090  99.6210480   7.6268000  44.7929020  94.8139220
   7.5164330  43.8503350  94.9388640   7.6236250  45.1544660  95.7001980
   5.7308020  42.9742640 101.0531660   6.1476810  42.7602750 100.2185120
   6.4547840  43.2315430 101.6240280   3.1688280  40.4194340  94.1701710
   2.2417560  40.3531720  94.3990180   3.3213100  41.3574470  94.0556950
   3.1557360  36.6911340  91.1668870   2.2161030  36.8525300  91.2521330
   3.4740620  37.4097020  90.6204860   9.6770120  41.3729860 101.1447900
   8.8488750  41.4422950 100.6698030  10.2720600  41.9584170 100.6763730
   7.1985570  41.9814640  94.6736960   6.5797990  41.6434190  94.0263260
   7.1810020  41.3374400  95.3816150   5.3750270  41.2201450  91.6809710
   5.8143550  40.3823880  91.5347530   6.0878690  41.8530850  91.7673850
   3.4845650  46.1597520  95.6490950   3.9241560  46.9021850  95.2346340
   3.4232540  46.4024090  96.5729910   8.9567410  32.4744260  89.9950750
   8.6440070  32.5671090  90.8949820   9.7179880  33.0525290  89.9448180
   6.1515830  49.1466640  93.0053960   5.9916970  48.8569580  93.9035790
   5.9862540  48.3706770  92.4699190   5.8541960  46.6554200  91.5651960
   5.1607120  46.6531490  90.9054240   6.5964820  46.2313520  91.1346130
   5.4191890  48.2816910  95.6400450   5.8748840  47.5006290  95.9539070
   5.7584410  48.9923730  96.1841630   4.9625190  38.3136070  94.1623660
   4.3634080  39.0371870  93.9787280   5.5104800  38.2512850  93.3800110
   3.5690060  36.9499610  96.1926940   3.9619630  37.2671810  95.3795630
   3.9306910  36.0711490  96.3071460   4.1545200  39.5405360 100.2877720
   3.4226320  40.0492170 100.6367820   3.7569540  38.7235340  99.9866500
   4.6171110  34.9939040  99.7000660   4.6343850  35.4447690 100.5442510
   4.3686690  34.0944680  99.9134100   7.9699700  42.5196330  99.1473070
   8.6898820  43.0151620  98.7569180   7.7681520  41.8414220  98.5026940
   3.4309640  33.9134290  93.2902460   2.6174250  33.4147460  93.2147770
   3.2371590  34.7532540  92.8738810   6.1458030  38.2853940  91.5864620
   7.0337650  38.5971170  91.4115960   6.1163120  37.4126190  91.1945200
   2.1418620  44.4577630  92.2652790   2.4834320  45.2019860  91.7696110
   1.3131330  44.7708750  92.6277620   8.4172300  39.5965780  91.0544480
   8.3336020  40.0280000  90.2040920   9.1366490  40.0564130  91.4871300
   9.4459550  46.4508040  93.7826610   8.8035710  45.7963660  94.0570330
   9.0590210  46.8563130  93.0067280   5.0246030  43.7793470  97.6298300
   5.3769850  43.1821600  96.9699670   4.1408360  43.4537700  97.8006550
   3.9901210  45.0575880 100.5963820   4.6323440  44.3569040 100.7095990
   4.5150560  45.8374320 100.4160710   7.8356930  45.3424500  90.3202960
   7.6094510  44.6254940  90.9127600   7.4453130  45.0936940  89.4824710
   7.4173180  43.2596440  91.9817120   7.1294880  43.7209130  92.7695000
   8.2125350  42.7994210  92.2501340   8.1743040  35.0945210  93.1412300
   7.5456200  35.1990880  92.4270530   7.6794960  35.3141990  93.9306180
   2.6201180  46.8150800  90.5746280   2.7213160  46.6114790  89.6448260
   1.7202920  46.5609080  90.7794060   4.1742500  34.0981820  95.9965970
   4.0510280  34.1167950  95.0475480   5.1227060  34.1460760  96.1164370
   7.2671870  40.2529000  96.8452460   6.3262010  40.2679230  97.0200150
   7.5815940  39.4664960  97.2912760   9.2697450  47.4237850  98.5206720
   9.3944870  48.2469020  98.9930530  10.1363010  47.2128580  98.1730870
   8.9047460  47.9169500  91.4386160   8.6188970  47.5034640  90.6240340
   8.7067010  48.8457210  91.3186680   3.6097420  42.9722810  90.4833760
   3.0607520  43.4192110  91.1276500   4.2316680  42.4672060  91.0071430
   1.7900180  40.9551340  89.6276160   2.3105840  40.2400360  89.2617310
   2.4368580  41.5937210  89.9276670   5.6519750  32.8155190  91.8544100
   5.9322040  31.9723090  92.2103520   4.8785480  33.0478300  92.3682850
   2.3548210  49.0362950  91.9177900   3.2499000  49.3747920  91.9396660
   2.3865840  48.3142360  91.2902180  10.5744010  45.3084440  89.9613810
   9.7436970  45.3761090  90.4321040  10.7515840  46.1988560  89.6580670
  10.0300470  42.0531920  92.4648010  10.7919380  42.6228570  92.5707700
  10.0454840  41.4859120  93.2356320  11.0360440  42.9082020  97.3089940
  11.4069270  42.1249340  96.9025910  11.6762370  43.5971120  97.1307240
  10.0819640  42.3466290  89.6220530  10.3568480  43.2545170  89.4939750
   9.8930380  42.2828820  90.5582520   6.4795250  35.3711140  90.9174160
   6.8980130  35.1842120  90.0770820   6.1731310  34.5190190  91.2277090
   9.9784980  40.2835280  94.6149960   9.6028580  39.5163210  94.1831250
   9.2488100  40.6657980  95.1024890   9.2535940  38.5092770  97.9157200
   9.7773420  38.0155420  97.2847370   9.8395360  38.6443130  98.6604770
   9.4325660  38.5932640 101.4376750   8.4828370  38.5596180 101.5521740
   9.6138670  39.5032750 101.2026520   8.7435910  37.7666120  93.8549610
   9.2395030  37.5336990  94.6398490   8.5451980  36.9277960  93.4387250
  10.1723070  36.4027070  96.3887290  10.0622350  36.2483110  97.3269560
  10.9330660  35.8748010  96.1462700  11.0613340  34.2334990  89.6293430
  11.9862650  34.1016170  89.4211720  11.0389130  34.3127810  90.5829880
  11.1351830  35.0045650  92.2550140  10.3403330  34.9390770  92.7843050
  11.3395110  35.9396290  92.2435490   8.0770250  49.0437200  96.2488530
   8.6729320  48.7221770  95.5722950   8.3348400  48.5709020  97.0401800
   8.6282460  49.6932500 100.0786260   8.1685430  50.4448310  99.7044280
   7.9994920  48.9738970 100.0201060   1.7973680  48.8929230 100.0803370
   2.0851490  48.6383530  99.2036380   2.3096900  48.3406590 100.6708940
   3.0150690  32.6319430 100.6599880   2.2322480  33.1064930 100.9396640
   2.7213620  31.7274260 100.5513060   7.5671760  33.3342530  98.7048970
   8.0079850  33.2787630  97.8570570   7.2979350  34.2500540  98.7759150
   9.4310330  32.9657770  96.7157790   9.3698730  32.0218990  96.5688810
  10.2102360  33.0737860  97.2611250   5.4029890  31.7148630  97.4098980
   6.0059260  32.2868840  97.8847500   4.6622880  32.2788070  97.1872880
   8.5464490  32.1170190  92.6839260   8.7415120  33.0153640  92.9506690
   7.7594360  31.8857270  93.1772210  10.0991100  49.3570900  94.4445820
  10.2743290  48.6708640  93.8006740   9.4012670  49.8817950  94.0522490
   4.5583260  39.9136130  78.1528660   4.4777310  38.9990740  77.8820370
   4.1447680  40.4103200  77.4468370   2.6901300  41.6915150  80.0337930
   1.9143400  41.2115590  80.3236500   3.3414230  41.0120800  79.8594090
   6.7108730  46.0975340  78.8137060   6.2490260  45.3262580  79.1424230
   7.5234280  46.1241410  79.3189510   2.9372040  48.3833350  78.4341050
   2.3183480  48.8390850  77.8635490   3.7923820  48.5384810  78.0330750
   2.1310290  44.3672340  80.0408090   2.0618570  43.4262280  79.8797220
   2.8930150  44.4573750  80.6130660   3.1615460  37.1742720  80.2677020
   3.5380280  36.3014600  80.1550690   3.0634970  37.5101420  79.3767460
   6.9439580  34.6693160  77.2005360   7.7649200  34.1789730  77.2430840
   6.9773660  35.2590820  77.9537200  11.2339130  36.6859910  83.7648990
  10.5291300  37.0741620  83.2464100  11.4997050  37.3810200  84.3669920
   3.8035390  43.2672590  75.8272960   3.1852660  43.7322040  75.2635680
   4.3158640  43.9600070  76.2442470   7.1801060  36.6093540  79.9732900
   6.4756630  36.8978430  80.5536010   7.5413220  37.4193650  79.6132460
   8.7963840  46.2268670  82.2360380   8.1127360  46.8967780  82.2277050
   9.3358130  46.4249320  81.4705240  10.2487980  36.0548330  80.3642110
   9.3012890  36.0887310  80.4957540  10.5737970  36.8687280  80.7491470
   6.3322580  48.0712800  80.9505560   6.3449740  47.6675090  80.0827820
   5.7797800  48.8460090  80.8466990   7.6268000  44.7929020  76.0395730
   7.5164330  43.8503350  76.1645150   7.6236250  45.1544660  76.9258490
   5.7308020  42.9742640  82.2788170   6.1476810  42.7602750  81.4441630
   6.4547840  43.2315430  82.8496790   3.1688280  40.4194340  75.3958220
   2.2417560  40.3531720  75.6246690   3.3213100  41.3574470  75.2813460
   3.1557360  36.6911340  72.3925380   2.2161030  36.8525300  72.4777840
   3.4740620  37.4097020  71.8461370   9.6770120  41.3729860  82.3704410
   8.8488750  41.4422950  81.8954540  10.2720600  41.9584170  81.9020240
   7.1985570  41.9814640  75.8993470   6.5797990  41.6434190  75.2519770
   7.1810020  41.3374400  76.6072660   6.6412130  38.1599180  83.3159280
   6.2283310  38.9852890  83.5699270   5.9088080  37.5744220  83.1235640
   7.3312230  48.2058510  84.0040260   6.8542790  49.0130700  83.8112870
   6.6474020  47.5536840  84.1566470   5.3750270  41.2201450  72.9066220
   5.8143550  40.3823880  72.7604040   6.0878690  41.8530850  72.9930360
   3.4845650  46.1597520  76.8747460   3.9241560  46.9021850  76.4602850
   3.4232540  46.4024090  77.7986420   8.9567410  32.4744260  71.2207260
   8.6440070  32.5671090  72.1206330   9.7179880  33.0525290  71.1704690
  10.9111440  47.9670450  89.0731650  11.3871160  48.4453340  89.7520730
  11.5318600  47.8987940  88.3477150  10.3144690  45.1583300  86.2331660
  10.4407750  44.9195180  85.3148840  10.3566070  44.3267840  86.7053740
   4.1761430  48.8611300  84.8026470   4.6906100  48.7719310  85.6048900
   3.3330510  49.2071000  85.0954380   6.1515830  49.1466640  74.2310470
   5.9916970  48.8569580  75.1292300   5.9862540  48.3706770  73.6955700
   5.8541960  46.6554200  72.7908470   5.1607120  46.6531490  72.1310750
   6.5964820  46.2313520  72.3602640   5.4191890  48.2816910  76.8656960
   5.8748840  47.5006290  77.1795580   5.7584410  48.9923730  77.4098140
  10.1668700  37.2115760  87.1981400   9.5512970  37.7195430  86.6696860
   9.8465120  36.3114090  87.1407340   2.2283020  36.0507650  84.6643590
   1.7662390  36.2590670  85.4763530   1.8261130  35.2367000  84.3614260
   7.2287530  37.2716600  85.7940250   6.3781120  36.9722350  86.1149320
   7.0689320  37.5158610  84.8824070   4.3237240  38.7718350  87.8939040
   4.6490650  37.9382100  87.5541270   5.1117570  39.2946870  88.0417370
   4.9625190  38.3136070  75.3880170   4.3634080  39.0371870  75.2043790
   5.5104800  38.2512850  74.6056620   3.5690060  36.9499610  77.4183450
   3.9619630  37.2671810  76.6052140   3.9306910  36.0711490  77.5327970
   1.8782230  35.7006920  88.6780310   1.1880550  35.5079120  89.3126400
   2.6214530  35.9841560  89.2104610   4.1545200  39.5405360  81.5134230
   3.4226320  40.0492170  81.8624330   3.7569540  38.7235340  81.2123010
   4.6171110  34.9939040  80.9257170   4.6343850  35.4447690  81.7699020
   4.3686690  34.0944680  81.1390610   8.0441860  32.4071220  86.7643550
   8.3687630  31.6760880  87.2901530   8.0798370  32.0884860  85.8624540
   7.9699700  42.5196330  80.3729580   8.6898820  43.0151620  79.9825690
   7.7681520  41.8414220  79.7283450   3.4309640  33.9134290  74.5158970
   2.6174250  33.4147460  74.4404280   3.2371590  34.7532540  74.0995320
   3.3518500  42.5905390  86.2598580   3.2855810  41.6701060  86.0056170
   2.7223640  42.6880830  86.9743220   6.1458030  38.2853940  72.8121130
   7.0337650  38.5971170  72.6372470   6.1163120  37.4126190  72.4201710
   2.1418620  44.4577630  73.4909300   2.4834320  45.2019860  72.9952620
   1.3131330  44.7708750  73.8534130   3.2835230  45.4125960  86.0102380
   3.2979770  44.4806920  85.7921290   2.5760330  45.4985720  86.6492150
   8.4172300  39.5965780  72.2800990   8.3336020  40.0280000  71.4297430
   9.1366490  40.0564130  72.7127810   9.4946440  42.0533300  85.3570960
   8.7694630  42.6462080  85.1600350  10.0221900  42.0456840  84.5584330
   9.4459550  46.4508040  75.0083120   8.8035710  45.7963660  75.2826840
   9.0590210  46.8563130  74.2323790   5.0246030  43.7793470  78.8554810
   5.3769850  43.1821600  78.1956180   4.1408360  43.4537700  79.0263060
   2.7169130  47.0543530  83.1042880   3.3611350  47.2602910  83.7816300
   3.0798570  46.2931930  82.6513730   3.9901210  45.0575880  81.8220330
   4.6323440  44.3569040  81.9352500   4.5150560  45.8374320  81.6417220
   7.8356930  45.3424500  71.5459470   7.6094510  44.6254940  72.1384110
   7.4453130  45.0936940  70.7081220   5.7638830  45.8570780  85.0256390
   6.0995070  46.4437470  85.7034310   4.8439170  45.7263490  85.2554180
   7.4173180  43.2596440  73.2073630   7.1294880  43.7209130  73.9951510
   8.2125350  42.7994210  73.4757850   4.8081010  36.1388270  83.5581250
   5.1761830  35.3183480  83.8860820   3.9479210  36.1990160  83.9736900
   8.1743040  35.0945210  74.3668810   7.5456200  35.1990880  73.6527040
   7.6794960  35.3141990  75.1562690   2.6201180  46.8150800  71.8002790
   2.7213160  46.6114790  70.8704770   1.7202920  46.5609080  72.0050570
   1.7683000  38.7927860  83.7819220   2.2668250  39.2673680  84.4471070
   1.9105950  37.8691380  83.9889250   4.1742500  34.0981820  77.2222480
   4.0510280  34.1167950  76.2731990   5.1227060  34.1460760  77.3420880
   8.9749860  35.0095820  84.6247610   8.4723460  35.7501220  84.9641420
   9.7906520  35.3979820  84.3084400   7.2671870  40.2529000  78.0708970
   6.3262010  40.2679230  78.2456660   7.5815940  39.4664960  78.5169270
   9.2697450  47.4237850  79.7463230   9.3944870  48.2469020  80.2187040
  10.1363010  47.2128580  79.3987380   4.5837890  44.8095000  88.5541350
   3.9776050  44.8326600  87.8137100   4.2792000  44.0778040  89.0908600
   6.0138260  48.5375290  87.1650760   6.9660010  48.4533310  87.1151000
   5.8666480  49.2017000  87.8384550   8.9047460  47.9169500  72.6642670
   8.6188970  47.5034640  71.8496850   8.7067010  48.8457210  72.5443190
   3.6097420  42.9722810  71.7090270   3.0607520  43.4192110  72.3533010
   4.2316680  42.4672060  72.2327940   7.6632360  44.3264910  87.6412530
   8.4041830  44.6640670  87.1379990   6.9005040  44.4956970  87.0882300
   1.7900180  40.9551340  70.8532670   2.3105840  40.2400360  70.4873820
   2.4368580  41.5937210  71.1533180   6.3378020  42.3779740  86.1767740
   6.7519040  42.5324820  87.0258160   5.4029020  42.5034960  86.3393520
   6.8100190  39.7175900  88.1806890   7.3920960  38.9628220  88.0927370
   6.9861960  40.2483340  87.4038370   3.4357150  40.0616400  85.5301510
   3.5553360  39.4657540  86.2696350   4.2951150  40.0986090  85.1102810
   5.7745050  40.6153590  84.1064020   5.2480270  41.1396210  83.5029160
   6.1176390  41.2480980  84.7373750   5.0219350  36.2203560  87.0210350
   4.3334870  35.5585100  86.9560340   5.7425370  35.7741830  87.4658810
   5.6519750  32.8155190  73.0800610   5.9322040  31.9723090  73.4360030
   4.8785480  33.0478300  73.5939360   2.3548210  49.0362950  73.1434410
   3.2499000  49.3747920  73.1653170   2.3865840  48.3142360  72.5158690
   9.3342560  47.5666620  85.8500610   8.7344550  47.6259180  85.1064530
   9.4636460  46.6271600  85.9797460  10.5744010  45.3084440  71.1870320
   9.7436970  45.3761090  71.6577550  10.7515840  46.1988560  70.8837180
  10.0300470  42.0531920  73.6904520  10.7919380  42.6228570  73.7964210
  10.0454840  41.4859120  74.4612830  11.0360440  42.9082020  78.5346450
  11.4069270  42.1249340  78.1282420  11.6762370  43.5971120  78.3563750
   8.0194200  44.2918600  83.9476770   7.2054040  44.7215760  84.2102560
   8.4268400  44.9037010  83.3345820  10.0819640  42.3466290  70.8477040
  10.3568480  43.2545170  70.7196260   9.8930380  42.2828820  71.7839030
   6.4795250  35.3711140  72.1430670   6.8980130  35.1842120  71.3027330
   6.1731310  34.5190190  72.4533600   9.9784980  40.2835280  75.8406470
   9.6028580  39.5163210  75.4087760   9.2488100  40.6657980  76.3281400
   9.3684600  39.4306800  85.4745990   9.1370690  39.2019550  84.5743940
   9.6289150  40.3506350  85.4290880   7.8072670  34.6563230  88.2525690
   8.6842850  34.6646630  88.6359690   7.8193510  33.9194070  87.6418040
   9.2535940  38.5092770  79.1413710   9.7773420  38.0155420  78.5103880
   9.8395360  38.6443130  79.8861280   9.4325660  38.5932640  82.6633260
   8.4828370  38.5596180  82.7778250   9.6138670  39.5032750  82.4283030
   8.7435910  37.7666120  75.0806120   9.2395030  37.5336990  75.8655000
   8.5451980  36.9277960  74.6643760  10.1723070  36.4027070  77.6143800
  10.0622350  36.2483110  78.5526070  10.9330660  35.8748010  77.3719210
   8.5188790  32.3421200  84.0726800   9.1561010  32.9555340  84.4385990
   8.6663680  32.3781860  83.1276030  11.0613340  34.2334990  70.8549940
  11.9862650  34.1016170  70.6468230  11.0389130  34.3127810  71.8086390
  11.1351830  35.0045650  73.4806650  10.3403330  34.9390770  74.0099560
  11.3395110  35.9396290  73.4692000   8.0770250  49.0437200  77.4745040
   8.6729320  48.7221770  76.7979460   8.3348400  48.5709020  78.2658310
   1.8893270  33.4947390  86.9801900   1.8282160  34.0869220  87.7297310
   2.8293650  33.3873350  86.8352160   4.5267830  33.1517450  86.6194190
   5.1408240  33.4696740  85.9575270   5.0717390  32.6666040  87.2390050
  10.9443010  49.0509080  84.0256030  10.4501290  49.4477950  83.3083160
  10.3356300  48.4258290  84.4193310   5.2675870  31.7149590  82.9463480
   4.3935710  32.0484700  82.7436410   5.1586620  31.2422770  83.7715350
   6.1747850  33.9220460  84.3305200   5.8461210  33.1072220  83.9506930
   7.1230150  33.8790270  84.2070890   8.6282460  49.6932500  81.3042770
   8.1685430  50.4448310  80.9300790   7.9994920  48.9738970  81.2457570
   1.7973680  48.8929230  81.3059880   2.0851490  48.6383530  80.4292890
   2.3096900  48.3406590  81.8965450   3.0150690  32.6319430  81.8856390
   2.2322480  33.1064930  82.1653150   2.7213620  31.7274260  81.7769570
   7.5671760  33.3342530  79.9305480   8.0079850  33.2787630  79.0827080
   7.2979350  34.2500540  80.0015660   9.4310330  32.9657770  77.9414300
   9.3698730  32.0218990  77.7945320  10.2102360  33.0737860  78.4867760
   5.4029890  31.7148630  78.6355490   6.0059260  32.2868840  79.1104010
   4.6622880  32.2788070  78.4129390   8.5464490  32.1170190  73.9095770
   8.7415120  33.0153640  74.1763200   7.7594360  31.8857270  74.4028720
   1.8646040  49.8145330  88.6728080   2.7913350  49.5789600  88.7164040
   1.8496470  50.6417330  88.1914110  10.0991100  49.3570900  75.6702330
  10.2743290  48.6708640  75.0263250   9.4012670  49.8817950  75.2779000
   5.6525110  31.8943660  89.0150430   5.5390560  32.2138270  89.9101950
   6.4694850  32.2956170  88.7187710   8.4323600  49.0415190  88.4969120
   9.2248920  48.5464420  88.2895080   8.7256750  49.7205330  89.1044730
   4.5583260  39.9136130  59.3785170   4.4777310  38.9990740  59.1076880
   4.1447680  40.4103200  58.6724880   2.6901300  41.6915150  61.2594440
   1.9143400  41.2115590  61.5493010   3.3414230  41.0120800  61.0850600
   6.7108730  46.0975340  60.0393570   6.2490260  45.3262580  60.3680740
   7.5234280  46.1241410  60.5446020   2.9372040  48.3833350  59.6597560
   2.3183480  48.8390850  59.0892000   3.7923820  48.5384810  59.2587260
   2.1310290  44.3672340  61.2664600   2.0618570  43.4262280  61.1053730
   2.8930150  44.4573750  61.8387170   3.1615460  37.1742720  61.4933530
   3.5380280  36.3014600  61.3807200   3.0634970  37.5101420  60.6023970
   6.9439580  34.6693160  58.4261870   7.7649200  34.1789730  58.4687350
   6.9773660  35.2590820  59.1793710  11.2339130  36.6859910  64.9905500
  10.5291300  37.0741620  64.4720610  11.4997050  37.3810200  65.5926430
   3.8035390  43.2672590  57.0529470   3.1852660  43.7322040  56.4892190
   4.3158640  43.9600070  57.4698980   7.1801060  36.6093540  61.1989410
   6.4756630  36.8978430  61.7792520   7.5413220  37.4193650  60.8388970
   8.7963840  46.2268670  63.4616890   8.1127360  46.8967780  63.4533560
   9.3358130  46.4249320  62.6961750  10.2487980  36.0548330  61.5898620
   9.3012890  36.0887310  61.7214050  10.5737970  36.8687280  61.9747980
   6.3322580  48.0712800  62.1762070   6.3449740  47.6675090  61.3084330
   5.7797800  48.8460090  62.0723500   7.6268000  44.7929020  57.2652240
   7.5164330  43.8503350  57.3901660   7.6236250  45.1544660  58.1515000
   5.7308020  42.9742640  63.5044680   6.1476810  42.7602750  62.6698140
   6.4547840  43.2315430  64.0753300   3.1688280  40.4194340  56.6214730
   2.2417560  40.3531720  56.8503200   3.3213100  41.3574470  56.5069970
   3.1557360  36.6911340  53.6181890   2.2161030  36.8525300  53.7034350
   3.4740620  37.4097020  53.0717880   9.6770120  41.3729860  63.5960920
   8.8488750  41.4422950  63.1211050  10.2720600  41.9584170  63.1276750
   7.1985570  41.9814640  57.1249980   6.5797990  41.6434190  56.4776280
   7.1810020  41.3374400  57.8329170   6.6412130  38.1599180  64.5415790
   6.2283310  38.9852890  64.7955780   5.9088080  37.5744220  64.3492150
   7.3312230  48.2058510  65.2296770   6.8542790  49.0130700  65.0369380
   6.6474020  47.5536840  65.3822980   5.3750270  41.2201450  54.1322730
   5.8143550  40.3823880  53.9860550   6.0878690  41.8530850  54.2186870
   3.4845650  46.1597520  58.1003970   3.9241560  46.9021850  57.6859360
   3.4232540  46.4024090  59.0242930   8.9567410  32.4744260  52.4463770
   8.6440070  32.5671090  53.3462840   9.7179880  33.0525290  52.3961200
  10.9111440  47.9670450  70.2988160  11.3871160  48.4453340  70.9777240
  11.5318600  47.8987940  69.5733660  10.3144690  45.1583300  67.4588170
  10.4407750  44.9195180  66.5405350  10.3566070  44.3267840  67.9310250
   4.1761430  48.8611300  66.0282980   4.6906100  48.7719310  66.8305410
   3.3330510  49.2071000  66.3210890   6.1515830  49.1466640  55.4566980
   5.9916970  48.8569580  56.3548810   5.9862540  48.3706770  54.9212210
   5.8541960  46.6554200  54.0164980   5.1607120  46.6531490  53.3567260
   6.5964820  46.2313520  53.5859150   5.4191890  48.2816910  58.0913470
   5.8748840  47.5006290  58.4052090   5.7584410  48.9923730  58.6354650
  10.1668700  37.2115760  68.4237910   9.5512970  37.7195430  67.8953370
   9.8465120  36.3114090  68.3663850   2.2283020  36.0507650  65.8900100
   1.7662390  36.2590670  66.7020040   1.8261130  35.2367000  65.5870770
   7.2287530  37.2716600  67.0196760   6.3781120  36.9722350  67.3405830
   7.0689320  37.5158610  66.1080580   4.3237240  38.7718350  69.1195550
   4.6490650  37.9382100  68.7797780   5.1117570  39.2946870  69.2673880
   4.9625190  38.3136070  56.6136680   4.3634080  39.0371870  56.4300300
   5.5104800  38.2512850  55.8313130   3.5690060  36.9499610  58.6439960
   3.9619630  37.2671810  57.8308650   3.9306910  36.0711490  58.7584480
   1.8782230  35.7006920  69.9036820   1.1880550  35.5079120  70.5382910
   2.6214530  35.9841560  70.4361120   4.1545200  39.5405360  62.7390740
   3.4226320  40.0492170  63.0880840   3.7569540  38.7235340  62.4379520
   4.6171110  34.9939040  62.1513680   4.6343850  35.4447690  62.9955530
   4.3686690  34.0944680  62.3647120   8.0441860  32.4071220  67.9900060
   8.3687630  31.6760880  68.5158040   8.0798370  32.0884860  67.0881050
   7.9699700  42.5196330  61.5986090   8.6898820  43.0151620  61.2082200
   7.7681520  41.8414220  60.9539960   3.4309640  33.9134290  55.7415480
   2.6174250  33.4147460  55.6660790   3.2371590  34.7532540  55.3251830
   3.3518500  42.5905390  67.4855090   3.2855810  41.6701060  67.2312680
   2.7223640  42.6880830  68.1999730   6.1458030  38.2853940  54.0377640
   7.0337650  38.5971170  53.8628980   6.1163120  37.4126190  53.6458220
   2.1418620  44.4577630  54.7165810   2.4834320  45.2019860  54.2209130
   1.3131330  44.7708750  55.0790640   3.2835230  45.4125960  67.2358890
   3.2979770  44.4806920  67.0177800   2.5760330  45.4985720  67.8748660
   8.4172300  39.5965780  53.5057500   8.3336020  40.0280000  52.6553940
   9.1366490  40.0564130  53.9384320   9.4946440  42.0533300  66.5827470
   8.7694630  42.6462080  66.3856860  10.0221900  42.0456840  65.7840840
   9.4459550  46.4508040  56.2339630   8.8035710  45.7963660  56.5083350
   9.0590210  46.8563130  55.4580300   5.0246030  43.7793470  60.0811320
   5.3769850  43.1821600  59.4212690   4.1408360  43.4537700  60.2519570
   2.7169130  47.0543530  64.3299390   3.3611350  47.2602910  65.0072810
   3.0798570  46.2931930  63.8770240   3.9901210  45.0575880  63.0476840
   4.6323440  44.3569040  63.1609010   4.5150560  45.8374320  62.8673730
   7.8356930  45.3424500  52.7715980   7.6094510  44.6254940  53.3640620
   7.4453130  45.0936940  51.9337730   5.7638830  45.8570780  66.2512900
   6.0995070  46.4437470  66.9290820   4.8439170  45.7263490  66.4810690
   7.4173180  43.2596440  54.4330140   7.1294880  43.7209130  55.2208020
   8.2125350  42.7994210  54.7014360   4.8081010  36.1388270  64.7837760
   5.1761830  35.3183480  65.1117330   3.9479210  36.1990160  65.1993410
   8.1743040  35.0945210  55.5925320   7.5456200  35.1990880  54.8783550
   7.6794960  35.3141990  56.3819200   2.6201180  46.8150800  53.0259300
   2.7213160  46.6114790  52.0961280   1.7202920  46.5609080  53.2307080
   1.7683000  38.7927860  65.0075730   2.2668250  39.2673680  65.6727580
   1.9105950  37.8691380  65.2145760   4.1742500  34.0981820  58.4478990
   4.0510280  34.1167950  57.4988500   5.1227060  34.1460760  58.5677390
   8.9749860  35.0095820  65.8504120   8.4723460  35.7501220  66.1897930
   9.7906520  35.3979820  65.5340910   7.2671870  40.2529000  59.2965480
   6.3262010  40.2679230  59.4713170   7.5815940  39.4664960  59.7425780
   9.2697450  47.4237850  60.9719740   9.3944870  48.2469020  61.4443550
  10.1363010  47.2128580  60.6243890   4.5837890  44.8095000  69.7797860
   3.9776050  44.8326600  69.0393610   4.2792000  44.0778040  70.3165110
   6.0138260  48.5375290  68.3907270   6.9660010  48.4533310  68.3407510
   5.8666480  49.2017000  69.0641060   8.9047460  47.9169500  53.8899180
   8.6188970  47.5034640  53.0753360   8.7067010  48.8457210  53.7699700
   3.6097420  42.9722810  52.9346780   3.0607520  43.4192110  53.5789520
   4.2316680  42.4672060  53.4584450   7.6632360  44.3264910  68.8669040
   8.4041830  44.6640670  68.3636500   6.9005040  44.4956970  68.3138810
   1.7900180  40.9551340  52.0789180   2.3105840  40.2400360  51.7130330
   2.4368580  41.5937210  52.3789690   6.3378020  42.3779740  67.4024250
   6.7519040  42.5324820  68.2514670   5.4029020  42.5034960  67.5650030
   6.8100190  39.7175900  69.4063400   7.3920960  38.9628220  69.3183880
   6.9861960  40.2483340  68.6294880   3.4357150  40.0616400  66.7558020
   3.5553360  39.4657540  67.4952860   4.2951150  40.0986090  66.3359320
   5.7745050  40.6153590  65.3320530   5.2480270  41.1396210  64.7285670
   6.1176390  41.2480980  65.9630260   5.0219350  36.2203560  68.2466860
   4.3334870  35.5585100  68.1816850   5.7425370  35.7741830  68.6915320
   5.6519750  32.8155190  54.3057120   5.9322040  31.9723090  54.6616540
   4.8785480  33.0478300  54.8195870   2.3548210  49.0362950  54.3690920
   3.2499000  49.3747920  54.3909680   2.3865840  48.3142360  53.7415200
   9.3342560  47.5666620  67.0757120   8.7344550  47.6259180  66.3321040
   9.4636460  46.6271600  67.2053970  10.5744010  45.3084440  52.4126830
   9.7436970  45.3761090  52.8834060  10.7515840  46.1988560  52.1093690
  10.0300470  42.0531920  54.9161030  10.7919380  42.6228570  55.0220720
  10.0454840  41.4859120  55.6869340  11.0360440  42.9082020  59.7602960
  11.4069270  42.1249340  59.3538930  11.6762370  43.5971120  59.5820260
   8.0194200  44.2918600  65.1733280   7.2054040  44.7215760  65.4359070
   8.4268400  44.9037010  64.5602330  10.0819640  42.3466290  52.0733550
  10.3568480  43.2545170  51.9452770   9.8930380  42.2828820  53.0095540
   6.4795250  35.3711140  53.3687180   6.8980130  35.1842120  52.5283840
   6.1731310  34.5190190  53.6790110   9.9784980  40.2835280  57.0662980
   9.6028580  39.5163210  56.6344270   9.2488100  40.6657980  57.5537910
   9.3684600  39.4306800  66.7002500   9.1370690  39.2019550  65.8000450
   9.6289150  40.3506350  66.6547390   7.8072670  34.6563230  69.4782200
   8.6842850  34.6646630  69.8616200   7.8193510  33.9194070  68.8674550
   9.2535940  38.5092770  60.3670220   9.7773420  38.0155420  59.7360390
   9.8395360  38.6443130  61.1117790   9.4325660  38.5932640  63.8889770
   8.4828370  38.5596180  64.0034760   9.6138670  39.5032750  63.6539540
   8.7435910  37.7666120  56.3062630   9.2395030  37.5336990  57.0911510
   8.5451980  36.9277960  55.8900270  10.1723070  36.4027070  58.8400310
  10.0622350  36.2483110  59.7782580  10.9330660  35.8748010  58.5975720
   8.5188790  32.3421200  65.2983310   9.1561010  32.9555340  65.6642500
   8.6663680  32.3781860  64.3532540  11.0613340  34.2334990  52.0806450
  11.9862650  34.1016170  51.8724740  11.0389130  34.3127810  53.0342900
  11.1351830  35.0045650  54.7063160  10.3403330  34.9390770  55.2356070
  11.3395110  35.9396290  54.6948510   8.0770250  49.0437200  58.7001550
   8.6729320  48.7221770  58.0235970   8.3348400  48.5709020  59.4914820
   1.8893270  33.4947390  68.2058410   1.8282160  34.0869220  68.9553820
   2.8293650  33.3873350  68.0608670   4.5267830  33.1517450  67.8450700
   5.1408240  33.4696740  67.1831780   5.0717390  32.6666040  68.4646560
  10.9443010  49.0509080  65.2512540  10.4501290  49.4477950  64.5339670
  10.3356300  48.4258290  65.6449820   5.2675870  31.7149590  64.1719990
   4.3935710  32.0484700  63.9692920   5.1586620  31.2422770  64.9971860
   6.1747850  33.9220460  65.5561710   5.8461210  33.1072220  65.1763440
   7.1230150  33.8790270  65.4327400   8.6282460  49.6932500  62.5299280
   8.1685430  50.4448310  62.1557300   7.9994920  48.9738970  62.4714080
   1.7973680  48.8929230  62.5316390   2.0851490  48.6383530  61.6549400
   2.3096900  48.3406590  63.1221960   3.0150690  32.6319430  63.1112900
   2.2322480  33.1064930  63.3909660   2.7213620  31.7274260  63.0026080
   7.5671760  33.3342530  61.1561990   8.0079850  33.2787630  60.3083590
   7.2979350  34.2500540  61.2272170   9.4310330  32.9657770  59.1670810
   9.3698730  32.0218990  59.0201830  10.2102360  33.0737860  59.7124270
   5.4029890  31.7148630  59.8612000   6.0059260  32.2868840  60.3360520
   4.6622880  32.2788070  59.6385900   8.5464490  32.1170190  55.1352280
   8.7415120  33.0153640  55.4019710   7.7594360  31.8857270  55.6285230
   1.8646040  49.8145330  69.8984590   2.7913350  49.5789600  69.9420550
   1.8496470  50.6417330  69.4170620  10.0991100  49.3570900  56.8958840
  10.2743290  48.6708640  56.2519760   9.4012670  49.8817950  56.5035510
   5.6525110  31.8943660  70.2406940   5.5390560  32.2138270  71.1358460
   6.4694850  32.2956170  69.9444220   8.4323600  49.0415190  69.7225630
   9.2248920  48.5464420  69.5151590   8.7256750  49.7205330  70.3301240
   4.5583260  39.9136130  40.6041680   4.4777310  38.9990740  40.3333390
   4.1447680  40.4103200  39.8981390   2.6901300  41.6915150  42.4850950
   1.9143400  41.2115590  42.7749520   3.3414230  41.0120800  42.3107110
   6.7108730  46.0975340  41.2650080   6.2490260  45.3262580  41.5937250
   7.5234280  46.1241410  41.7702530   2.9372040  48.3833350  40.8854070
   2.3183480  48.8390850  40.3148510   3.7923820  48.5384810  40.4843770
   2.1310290  44.3672340  42.4921110   2.0618570  43.4262280  42.3310240
   2.8930150  44.4573750  43.0643680   3.1615460  37.1742720  42.7190040
   3.5380280  36.3014600  42.6063710   3.0634970  37.5101420  41.8280480
   6.9439580  34.6693160  39.6518380   7.7649200  34.1789730  39.6943860
   6.9773660  35.2590820  40.4050220  11.2339130  36.6859910  46.2162010
  10.5291300  37.0741620  45.6977120  11.4997050  37.3810200  46.8182940
   3.8035390  43.2672590  38.2785980   3.1852660  43.7322040  37.7148700
   4.3158640  43.9600070  38.6955490   7.1801060  36.6093540  42.4245920
   6.4756630  36.8978430  43.0049030   7.5413220  37.4193650  42.0645480
   8.7963840  46.2268670  44.6873400   8.1127360  46.8967780  44.6790070
   9.3358130  46.4249320  43.9218260  10.2487980  36.0548330  42.8155130
   9.3012890  36.0887310  42.9470560  10.5737970  36.8687280  43.2004490
   6.3322580  48.0712800  43.4018580   6.3449740  47.6675090  42.5340840
   5.7797800  48.8460090  43.2980010   7.6268000  44.7929020  38.4908750
   7.5164330  43.8503350  38.6158170   7.6236250  45.1544660  39.3771510
   5.7308020  42.9742640  44.7301190   6.1476810  42.7602750  43.8954650
   6.4547840  43.2315430  45.3009810   3.1688280  40.4194340  37.8471240
   2.2417560  40.3531720  38.0759710   3.3213100  41.3574470  37.7326480
   3.1557360  36.6911340  34.8438400   2.2161030  36.8525300  34.9290860
   3.4740620  37.4097020  34.2974390   9.6770120  41.3729860  44.8217430
   8.8488750  41.4422950  44.3467560  10.2720600  41.9584170  44.3533260
   7.1985570  41.9814640  38.3506490   6.5797990  41.6434190  37.7032790
   7.1810020  41.3374400  39.0585680   6.6412130  38.1599180  45.7672300
   6.2283310  38.9852890  46.0212290   5.9088080  37.5744220  45.5748660
   7.3312230  48.2058510  46.4553280   6.8542790  49.0130700  46.2625890
   6.6474020  47.5536840  46.6079490   5.3750270  41.2201450  35.3579240
   5.8143550  40.3823880  35.2117060   6.0878690  41.8530850  35.4443380
   3.4845650  46.1597520  39.3260480   3.9241560  46.9021850  38.9115870
   3.4232540  46.4024090  40.2499440   8.9567410  32.4744260  33.6720280
   8.6440070  32.5671090  34.5719350   9.7179880  33.0525290  33.6217710
  10.9111440  47.9670450  51.5244670  11.3871160  48.4453340  52.2033750
  11.5318600  47.8987940  50.7990170  10.3144690  45.1583300  48.6844680
  10.4407750  44.9195180  47.7661860  10.3566070  44.3267840  49.1566760
   4.1761430  48.8611300  47.2539490   4.6906100  48.7719310  48.0561920
   3.3330510  49.2071000  47.5467400   6.1515830  49.1466640  36.6823490
   5.9916970  48.8569580  37.5805320   5.9862540  48.3706770  36.1468720
   5.8541960  46.6554200  35.2421490   5.1607120  46.6531490  34.5823770
   6.5964820  46.2313520  34.8115660   5.4191890  48.2816910  39.3169980
   5.8748840  47.5006290  39.6308600   5.7584410  48.9923730  39.8611160
  10.1668700  37.2115760  49.6494420   9.5512970  37.7195430  49.1209880
   9.8465120  36.3114090  49.5920360   2.2283020  36.0507650  47.1156610
   1.7662390  36.2590670  47.9276550   1.8261130  35.2367000  46.8127280
   7.2287530  37.2716600  48.2453270   6.3781120  36.9722350  48.5662340
   7.0689320  37.5158610  47.3337090   4.3237240  38.7718350  50.3452060
   4.6490650  37.9382100  50.0054290   5.1117570  39.2946870  50.4930390
   4.9625190  38.3136070  37.8393190   4.3634080  39.0371870  37.6556810
   5.5104800  38.2512850  37.0569640   3.5690060  36.9499610  39.8696470
   3.9619630  37.2671810  39.0565160   3.9306910  36.0711490  39.9840990
   1.8782230  35.7006920  51.1293330   1.1880550  35.5079120  51.7639420
   2.6214530  35.9841560  51.6617630   4.1545200  39.5405360  43.9647250
   3.4226320  40.0492170  44.3137350   3.7569540  38.7235340  43.6636030
   4.6171110  34.9939040  43.3770190   4.6343850  35.4447690  44.2212040
   4.3686690  34.0944680  43.5903630   8.0441860  32.4071220  49.2156570
   8.3687630  31.6760880  49.7414550   8.0798370  32.0884860  48.3137560
   7.9699700  42.5196330  42.8242600   8.6898820  43.0151620  42.4338710
   7.7681520  41.8414220  42.1796470   3.4309640  33.9134290  36.9671990
   2.6174250  33.4147460  36.8917300   3.2371590  34.7532540  36.5508340
   3.3518500  42.5905390  48.7111600   3.2855810  41.6701060  48.4569190
   2.7223640  42.6880830  49.4256240   6.1458030  38.2853940  35.2634150
   7.0337650  38.5971170  35.0885490   6.1163120  37.4126190  34.8714730
   2.1418620  44.4577630  35.9422320   2.4834320  45.2019860  35.4465640
   1.3131330  44.7708750  36.3047150   3.2835230  45.4125960  48.4615400
   3.2979770  44.4806920  48.2434310   2.5760330  45.4985720  49.1005170
   8.4172300  39.5965780  34.7314010   8.3336020  40.0280000  33.8810450
   9.1366490  40.0564130  35.1640830   9.4946440  42.0533300  47.8083980
   8.7694630  42.6462080  47.6113370  10.0221900  42.0456840  47.0097350
   9.4459550  46.4508040  37.4596140   8.8035710  45.7963660  37.7339860
   9.0590210  46.8563130  36.6836810   5.0246030  43.7793470  41.3067830
   5.3769850  43.1821600  40.6469200   4.1408360  43.4537700  41.4776080
   2.7169130  47.0543530  45.5555900   3.3611350  47.2602910  46.2329320
   3.0798570  46.2931930  45.1026750   3.9901210  45.0575880  44.2733350
   4.6323440  44.3569040  44.3865520   4.5150560  45.8374320  44.0930240
   7.8356930  45.3424500  33.9972490   7.6094510  44.6254940  34.5897130
   7.4453130  45.0936940  33.1594240   5.7638830  45.8570780  47.4769410
   6.0995070  46.4437470  48.1547330   4.8439170  45.7263490  47.7067200
   7.4173180  43.2596440  35.6586650   7.1294880  43.7209130  36.4464530
   8.2125350  42.7994210  35.9270870   4.8081010  36.1388270  46.0094270
   5.1761830  35.3183480  46.3373840   3.9479210  36.1990160  46.4249920
   8.1743040  35.0945210  36.8181830   7.5456200  35.1990880  36.1040060
   7.6794960  35.3141990  37.6075710   2.6201180  46.8150800  34.2515810
   2.7213160  46.6114790  33.3217790   1.7202920  46.5609080  34.4563590
   1.7683000  38.7927860  46.2332240   2.2668250  39.2673680  46.8984090
   1.9105950  37.8691380  46.4402270   4.1742500  34.0981820  39.6735500
   4.0510280  34.1167950  38.7245010   5.1227060  34.1460760  39.7933900
   8.9749860  35.0095820  47.0760630   8.4723460  35.7501220  47.4154440
   9.7906520  35.3979820  46.7597420   7.2671870  40.2529000  40.5221990
   6.3262010  40.2679230  40.6969680   7.5815940  39.4664960  40.9682290
   9.2697450  47.4237850  42.1976250   9.3944870  48.2469020  42.6700060
  10.1363010  47.2128580  41.8500400   4.5837890  44.8095000  51.0054370
   3.9776050  44.8326600  50.2650120   4.2792000  44.0778040  51.5421620
   6.0138260  48.5375290  49.6163780   6.9660010  48.4533310  49.5664020
   5.8666480  49.2017000  50.2897570   8.9047460  47.9169500  35.1155690
   8.6188970  47.5034640  34.3009870   8.7067010  48.8457210  34.9956210
   3.6097420  42.9722810  34.1603290   3.0607520  43.4192110  34.8046030
   4.2316680  42.4672060  34.6840960   7.6632360  44.3264910  50.0925550
   8.4041830  44.6640670  49.5893010   6.9005040  44.4956970  49.5395320
   1.7900180  40.9551340  33.3045690   2.3105840  40.2400360  32.9386840
   2.4368580  41.5937210  33.6046200   6.3378020  42.3779740  48.6280760
   6.7519040  42.5324820  49.4771180   5.4029020  42.5034960  48.7906540
   6.8100190  39.7175900  50.6319910   7.3920960  38.9628220  50.5440390
   6.9861960  40.2483340  49.8551390   3.4357150  40.0616400  47.9814530
   3.5553360  39.4657540  48.7209370   4.2951150  40.0986090  47.5615830
   5.7745050  40.6153590  46.5577040   5.2480270  41.1396210  45.9542180
   6.1176390  41.2480980  47.1886770   5.0219350  36.2203560  49.4723370
   4.3334870  35.5585100  49.4073360   5.7425370  35.7741830  49.9171830
   5.6519750  32.8155190  35.5313630   5.9322040  31.9723090  35.8873050
   4.8785480  33.0478300  36.0452380   2.3548210  49.0362950  35.5947430
   3.2499000  49.3747920  35.6166190   2.3865840  48.3142360  34.9671710
   9.3342560  47.5666620  48.3013630   8.7344550  47.6259180  47.5577550
   9.4636460  46.6271600  48.4310480  10.5744010  45.3084440  33.6383340
   9.7436970  45.3761090  34.1090570  10.7515840  46.1988560  33.3350200
  10.0300470  42.0531920  36.1417540  10.7919380  42.6228570  36.2477230
  10.0454840  41.4859120  36.9125850  11.0360440  42.9082020  40.9859470
  11.4069270  42.1249340  40.5795440  11.6762370  43.5971120  40.8076770
   8.0194200  44.2918600  46.3989790   7.2054040  44.7215760  46.6615580
   8.4268400  44.9037010  45.7858840  10.0819640  42.3466290  33.2990060
  10.3568480  43.2545170  33.1709280   9.8930380  42.2828820  34.2352050
   6.4795250  35.3711140  34.5943690   6.8980130  35.1842120  33.7540350
   6.1731310  34.5190190  34.9046620   9.9784980  40.2835280  38.2919490
   9.6028580  39.5163210  37.8600780   9.2488100  40.6657980  38.7794420
   9.3684600  39.4306800  47.9259010   9.1370690  39.2019550  47.0256960
   9.6289150  40.3506350  47.8803900   7.8072670  34.6563230  50.7038710
   8.6842850  34.6646630  51.0872710   7.8193510  33.9194070  50.0931060
   9.2535940  38.5092770  41.5926730   9.7773420  38.0155420  40.9616900
   9.8395360  38.6443130  42.3374300   9.4325660  38.5932640  45.1146280
   8.4828370  38.5596180  45.2291270   9.6138670  39.5032750  44.8796050
   8.7435910  37.7666120  37.5319140   9.2395030  37.5336990  38.3168020
   8.5451980  36.9277960  37.1156780  10.1723070  36.4027070  40.0656820
  10.0622350  36.2483110  41.0039090  10.9330660  35.8748010  39.8232230
   8.5188790  32.3421200  46.5239820   9.1561010  32.9555340  46.8899010
   8.6663680  32.3781860  45.5789050  11.0613340  34.2334990  33.3062960
  11.9862650  34.1016170  33.0981250  11.0389130  34.3127810  34.2599410
  11.1351830  35.0045650  35.9319670  10.3403330  34.9390770  36.4612580
  11.3395110  35.9396290  35.9205020   8.0770250  49.0437200  39.9258060
   8.6729320  48.7221770  39.2492480   8.3348400  48.5709020  40.7171330
   1.8893270  33.4947390  49.4314920   1.8282160  34.0869220  50.1810330
   2.8293650  33.3873350  49.2865180   4.5267830  33.1517450  49.0707210
   5.1408240  33.4696740  48.4088290   5.0717390  32.6666040  49.6903070
  10.9443010  49.0509080  46.4769050  10.4501290  49.4477950  45.7596180
  10.3356300  48.4258290  46.8706330   5.2675870  31.7149590  45.3976500
   4.3935710  32.0484700  45.1949430   5.1586620  31.2422770  46.2228370
   6.1747850  33.9220460  46.7818220   5.8461210  33.1072220  46.4019950
   7.1230150  33.8790270  46.6583910   8.6282460  49.6932500  43.7555790
   8.1685430  50.4448310  43.3813810   7.9994920  48.9738970  43.6970590
   1.7973680  48.8929230  43.7572900   2.0851490  48.6383530  42.8805910
   2.3096900  48.3406590  44.3478470   3.0150690  32.6319430  44.3369410
   2.2322480  33.1064930  44.6166170   2.7213620  31.7274260  44.2282590
   7.5671760  33.3342530  42.3818500   8.0079850  33.2787630  41.5340100
   7.2979350  34.2500540  42.4528680   9.4310330  32.9657770  40.3927320
   9.3698730  32.0218990  40.2458340  10.2102360  33.0737860  40.9380780
   5.4029890  31.7148630  41.0868510   6.0059260  32.2868840  41.5617030
   4.6622880  32.2788070  40.8642410   8.5464490  32.1170190  36.3608790
   8.7415120  33.0153640  36.6276220   7.7594360  31.8857270  36.8541740
   1.8646040  49.8145330  51.1241100   2.7913350  49.5789600  51.1677060
   1.8496470  50.6417330  50.6427130  10.0991100  49.3570900  38.1215350
  10.2743290  48.6708640  37.4776270   9.4012670  49.8817950  37.7292020
   5.6525110  31.8943660  51.4663450   5.5390560  32.2138270  52.3614970
   6.4694850  32.2956170  51.1700730   8.4323600  49.0415190  50.9482140
   9.2248920  48.5464420  50.7408100   8.7256750  49.7205330  51.5557750
   4.5583260  39.9136130  21.8298190   4.4777310  38.9990740  21.5589900
   4.1447680  40.4103200  21.1237900   2.6901300  41.6915150  23.7107460
   1.9143400  41.2115590  24.0006030   3.3414230  41.0120800  23.5363620
   6.7108730  46.0975340  22.4906590   6.2490260  45.3262580  22.8193760
   7.5234280  46.1241410  22.9959040   2.9372040  48.3833350  22.1110580
   2.3183480  48.8390850  21.5405020   3.7923820  48.5384810  21.7100280
   2.1310290  44.3672340  23.7177620   2.0618570  43.4262280  23.5566750
   2.8930150  44.4573750  24.2900190   3.1615460  37.1742720  23.9446550
   3.5380280  36.3014600  23.8320220   3.0634970  37.5101420  23.0536990
   6.9439580  34.6693160  20.8774890   7.7649200  34.1789730  20.9200370
   6.9773660  35.2590820  21.6306730  11.2339130  36.6859910  27.4418520
  10.5291300  37.0741620  26.9233630  11.4997050  37.3810200  28.0439450
   3.8035390  43.2672590  19.5042490   3.1852660  43.7322040  18.9405210
   4.3158640  43.9600070  19.9212000   7.1801060  36.6093540  23.6502430
   6.4756630  36.8978430  24.2305540   7.5413220  37.4193650  23.2901990
   8.7963840  46.2268670  25.9129910   8.1127360  46.8967780  25.9046580
   9.3358130  46.4249320  25.1474770  10.2487980  36.0548330  24.0411640
   9.3012890  36.0887310  24.1727070  10.5737970  36.8687280  24.4261000
   6.3322580  48.0712800  24.6275090   6.3449740  47.6675090  23.7597350
   5.7797800  48.8460090  24.5236520   7.6268000  44.7929020  19.7165260
   7.5164330  43.8503350  19.8414680   7.6236250  45.1544660  20.6028020
   5.7308020  42.9742640  25.9557700   6.1476810  42.7602750  25.1211160
   6.4547840  43.2315430  26.5266320   3.1688280  40.4194340  19.0727750
   2.2417560  40.3531720  19.3016220   3.3213100  41.3574470  18.9582990
   3.1557360  36.6911340  16.0694910   2.2161030  36.8525300  16.1547370
   3.4740620  37.4097020  15.5230900   9.6770120  41.3729860  26.0473940
   8.8488750  41.4422950  25.5724070  10.2720600  41.9584170  25.5789770
   7.1985570  41.9814640  19.5763000   6.5797990  41.6434190  18.9289300
   7.1810020  41.3374400  20.2842190   6.6412130  38.1599180  26.9928810
   6.2283310  38.9852890  27.2468800   5.9088080  37.5744220  26.8005170
   7.3312230  48.2058510  27.6809790   6.8542790  49.0130700  27.4882400
   6.6474020  47.5536840  27.8336000   5.3750270  41.2201450  16.5835750
   5.8143550  40.3823880  16.4373570   6.0878690  41.8530850  16.6699890
   3.4845650  46.1597520  20.5516990   3.9241560  46.9021850  20.1372380
   3.4232540  46.4024090  21.4755950   8.9567410  32.4744260  14.8976790
   8.6440070  32.5671090  15.7975860   9.7179880  33.0525290  14.8474220
  10.9111440  47.9670450  32.7501180  11.3871160  48.4453340  33.4290260
  11.5318600  47.8987940  32.0246680  10.3144690  45.1583300  29.9101190
  10.4407750  44.9195180  28.9918370  10.3566070  44.3267840  30.3823270
   4.1761430  48.8611300  28.4796000   4.6906100  48.7719310  29.2818430
   3.3330510  49.2071000  28.7723910   6.1515830  49.1466640  17.9080000
   5.9916970  48.8569580  18.8061830   5.9862540  48.3706770  17.3725230
   5.8541960  46.6554200  16.4678000   5.1607120  46.6531490  15.8080280
   6.5964820  46.2313520  16.0372170   5.4191890  48.2816910  20.5426490
   5.8748840  47.5006290  20.8565110   5.7584410  48.9923730  21.0867670
  10.1668700  37.2115760  30.8750930   9.5512970  37.7195430  30.3466390
   9.8465120  36.3114090  30.8176870   2.2283020  36.0507650  28.3413120
   1.7662390  36.2590670  29.1533060   1.8261130  35.2367000  28.0383790
   7.2287530  37.2716600  29.4709780   6.3781120  36.9722350  29.7918850
   7.0689320  37.5158610  28.5593600   4.3237240  38.7718350  31.5708570
   4.6490650  37.9382100  31.2310800   5.1117570  39.2946870  31.7186900
   4.9625190  38.3136070  19.0649700   4.3634080  39.0371870  18.8813320
   5.5104800  38.2512850  18.2826150   3.5690060  36.9499610  21.0952980
   3.9619630  37.2671810  20.2821670   3.9306910  36.0711490  21.2097500
   1.8782230  35.7006920  32.3549840   1.1880550  35.5079120  32.9895930
   2.6214530  35.9841560  32.8874140   4.1545200  39.5405360  25.1903760
   3.4226320  40.0492170  25.5393860   3.7569540  38.7235340  24.8892540
   4.6171110  34.9939040  24.6026700   4.6343850  35.4447690  25.4468550
   4.3686690  34.0944680  24.8160140   8.0441860  32.4071220  30.4413080
   8.3687630  31.6760880  30.9671060   8.0798370  32.0884860  29.5394070
   7.9699700  42.5196330  24.0499110   8.6898820  43.0151620  23.6595220
   7.7681520  41.8414220  23.4052980   3.4309640  33.9134290  18.1928500
   2.6174250  33.4147460  18.1173810   3.2371590  34.7532540  17.7764850
   3.3518500  42.5905390  29.9368110   3.2855810  41.6701060  29.6825700
   2.7223640  42.6880830  30.6512750   6.1458030  38.2853940  16.4890660
   7.0337650  38.5971170  16.3142000   6.1163120  37.4126190  16.0971240
   2.1418620  44.4577630  17.1678830   2.4834320  45.2019860  16.6722150
   1.3131330  44.7708750  17.5303660   3.2835230  45.4125960  29.6871910
   3.2979770  44.4806920  29.4690820   2.5760330  45.4985720  30.3261680
   8.4172300  39.5965780  15.9570520   8.3336020  40.0280000  15.1066960
   9.1366490  40.0564130  16.3897340   9.4946440  42.0533300  29.0340490
   8.7694630  42.6462080  28.8369880  10.0221900  42.0456840  28.2353860
   9.4459550  46.4508040  18.6852650   8.8035710  45.7963660  18.9596370
   9.0590210  46.8563130  17.9093320   5.0246030  43.7793470  22.5324340
   5.3769850  43.1821600  21.8725710   4.1408360  43.4537700  22.7032590
   2.7169130  47.0543530  26.7812410   3.3611350  47.2602910  27.4585830
   3.0798570  46.2931930  26.3283260   3.9901210  45.0575880  25.4989860
   4.6323440  44.3569040  25.6122030   4.5150560  45.8374320  25.3186750
   7.8356930  45.3424500  15.2229000   7.6094510  44.6254940  15.8153640
   7.4453130  45.0936940  14.3850750   5.7638830  45.8570780  28.7025920
   6.0995070  46.4437470  29.3803840   4.8439170  45.7263490  28.9323710
   7.4173180  43.2596440  16.8843160   7.1294880  43.7209130  17.6721040
   8.2125350  42.7994210  17.1527380   4.8081010  36.1388270  27.2350780
   5.1761830  35.3183480  27.5630350   3.9479210  36.1990160  27.6506430
   8.1743040  35.0945210  18.0438340   7.5456200  35.1990880  17.3296570
   7.6794960  35.3141990  18.8332220   2.6201180  46.8150800  15.4772320
   2.7213160  46.6114790  14.5474300   1.7202920  46.5609080  15.6820100
   1.7683000  38.7927860  27.4588750   2.2668250  39.2673680  28.1240600
   1.9105950  37.8691380  27.6658780   4.1742500  34.0981820  20.8992010
   4.0510280  34.1167950  19.9501520   5.1227060  34.1460760  21.0190410
   8.9749860  35.0095820  28.3017140   8.4723460  35.7501220  28.6410950
   9.7906520  35.3979820  27.9853930   7.2671870  40.2529000  21.7478500
   6.3262010  40.2679230  21.9226190   7.5815940  39.4664960  22.1938800
   9.2697450  47.4237850  23.4232760   9.3944870  48.2469020  23.8956570
  10.1363010  47.2128580  23.0756910   4.5837890  44.8095000  32.2310880
   3.9776050  44.8326600  31.4906630   4.2792000  44.0778040  32.7678130
   6.0138260  48.5375290  30.8420290   6.9660010  48.4533310  30.7920530
   5.8666480  49.2017000  31.5154080   8.9047460  47.9169500  16.3412200
   8.6188970  47.5034640  15.5266380   8.7067010  48.8457210  16.2212720
   3.6097420  42.9722810  15.3859800   3.0607520  43.4192110  16.0302540
   4.2316680  42.4672060  15.9097470   7.6632360  44.3264910  31.3182060
   8.4041830  44.6640670  30.8149520   6.9005040  44.4956970  30.7651830
   1.7900180  40.9551340  14.5302200   2.3105840  40.2400360  14.1643350
   2.4368580  41.5937210  14.8302710   6.3378020  42.3779740  29.8537270
   6.7519040  42.5324820  30.7027690   5.4029020  42.5034960  30.0163050
   6.8100190  39.7175900  31.8576420   7.3920960  38.9628220  31.7696900
   6.9861960  40.2483340  31.0807900   3.4357150  40.0616400  29.2071040
   3.5553360  39.4657540  29.9465880   4.2951150  40.0986090  28.7872340
   5.7745050  40.6153590  27.7833550   5.2480270  41.1396210  27.1798690
   6.1176390  41.2480980  28.4143280   5.0219350  36.2203560  30.6979880
   4.3334870  35.5585100  30.6329870   5.7425370  35.7741830  31.1428340
   5.6519750  32.8155190  16.7570140   5.9322040  31.9723090  17.1129560
   4.8785480  33.0478300  17.2708890   2.3548210  49.0362950  16.8203940
   3.2499000  49.3747920  16.8422700   2.3865840  48.3142360  16.1928220
   9.3342560  47.5666620  29.5270140   8.7344550  47.6259180  28.7834060
   9.4636460  46.6271600  29.6566990  10.5744010  45.3084440  14.8639850
   9.7436970  45.3761090  15.3347080  10.7515840  46.1988560  14.5606710
  10.0300470  42.0531920  17.3674050  10.7919380  42.6228570  17.4733740
  10.0454840  41.4859120  18.1382360  11.0360440  42.9082020  22.2115980
  11.4069270  42.1249340  21.8051950  11.6762370  43.5971120  22.0333280
   8.0194200  44.2918600  27.6246300   7.2054040  44.7215760  27.8872090
   8.4268400  44.9037010  27.0115350  10.0819640  42.3466290  14.5246570
  10.3568480  43.2545170  14.3965790   9.8930380  42.2828820  15.4608560
   6.4795250  35.3711140  15.8200200   6.8980130  35.1842120  14.9796860
   6.1731310  34.5190190  16.1303130   9.9784980  40.2835280  19.5176000
   9.6028580  39.5163210  19.0857290   9.2488100  40.6657980  20.0050930
   9.3684600  39.4306800  29.1515520   9.1370690  39.2019550  28.2513470
   9.6289150  40.3506350  29.1060410   7.8072670  34.6563230  31.9295220
   8.6842850  34.6646630  32.3129220   7.8193510  33.9194070  31.3187570
   9.2535940  38.5092770  22.8183240   9.7773420  38.0155420  22.1873410
   9.8395360  38.6443130  23.5630810   9.4325660  38.5932640  26.3402790
   8.4828370  38.5596180  26.4547780   9.6138670  39.5032750  26.1052560
   8.7435910  37.7666120  18.7575650   9.2395030  37.5336990  19.5424530
   8.5451980  36.9277960  18.3413290  10.1723070  36.4027070  21.2913330
  10.0622350  36.2483110  22.2295600  10.9330660  35.8748010  21.0488740
   8.5188790  32.3421200  27.7496330   9.1561010  32.9555340  28.1155520
   8.6663680  32.3781860  26.8045560  11.0613340  34.2334990  14.5319470
  11.9862650  34.1016170  14.3237760  11.0389130  34.3127810  15.4855920
  11.1351830  35.0045650  17.1576180  10.3403330  34.9390770  17.6869090
  11.3395110  35.9396290  17.1461530   8.0770250  49.0437200  21.1514570
   8.6729320  48.7221770  20.4748990   8.3348400  48.5709020  21.9427840
   1.8893270  33.4947390  30.6571430   1.8282160  34.0869220  31.4066840
   2.8293650  33.3873350  30.5121690   4.5267830  33.1517450  30.2963720
   5.1408240  33.4696740  29.6344800   5.0717390  32.6666040  30.9159580
  10.9443010  49.0509080  27.7025560  10.4501290  49.4477950  26.9852690
  10.3356300  48.4258290  28.0962840   5.2675870  31.7149590  26.6233010
   4.3935710  32.0484700  26.4205940   5.1586620  31.2422770  27.4484880
   6.1747850  33.9220460  28.0074730   5.8461210  33.1072220  27.6276460
   7.1230150  33.8790270  27.8840420   8.6282460  49.6932500  24.9812300
   8.1685430  50.4448310  24.6070320   7.9994920  48.9738970  24.9227100
   1.7973680  48.8929230  24.9829410   2.0851490  48.6383530  24.1062420
   2.3096900  48.3406590  25.5734980   3.0150690  32.6319430  25.5625920
   2.2322480  33.1064930  25.8422680   2.7213620  31.7274260  25.4539100
   7.5671760  33.3342530  23.6075010   8.0079850  33.2787630  22.7596610
   7.2979350  34.2500540  23.6785190   9.4310330  32.9657770  21.6183830
   9.3698730  32.0218990  21.4714850  10.2102360  33.0737860  22.1637290
   5.4029890  31.7148630  22.3125020   6.0059260  32.2868840  22.7873540
   4.6622880  32.2788070  22.0898920   8.5464490  32.1170190  17.5865300
   8.7415120  33.0153640  17.8532730   7.7594360  31.8857270  18.0798250
   1.8646040  49.8145330  32.3497610   2.7913350  49.5789600  32.3933570
   1.8496470  50.6417330  31.8683640  10.0991100  49.3570900  19.3471860
  10.2743290  48.6708640  18.7032780   9.4012670  49.8817950  18.9548530
   5.6525110  31.8943660  32.6919960   5.5390560  32.2138270  33.5871480
   6.4694850  32.2956170  32.3957240   8.4323600  49.0415190  32.1738650
   9.2248920  48.5464420  31.9664610   8.7256750  49.7205330  32.7814260
   4.5583260  39.9136130   3.0554700   4.4777310  38.9990740   2.7846410
   4.1447680  40.4103200   2.3494410   2.6901300  41.6915150   4.9363970
   1.9143400  41.2115590   5.2262540   3.3414230  41.0120800   4.7620130
   6.7108730  46.0975340   3.7163100   6.2490260  45.3262580   4.0450270
   7.5234280  46.1241410   4.2215550   2.9372040  48.3833350   3.3367090
   2.3183480  48.8390850   2.7661530   3.7923820  48.5384810   2.9356790
   2.1310290  44.3672340   4.9434130   2.0618570  43.4262280   4.7823260
   2.8930150  44.4573750   5.5156700   3.1615460  37.1742720   5.1703060
   3.5380280  36.3014600   5.0576730   3.0634970  37.5101420   4.2793500
   6.9439580  34.6693160   2.1031400   7.7649200  34.1789730   2.1456880
   6.9773660  35.2590820   2.8563240  11.2339130  36.6859910   8.6675030
  10.5291300  37.0741620   8.1490140  11.4997050  37.3810200   9.2695960
   7.1801060  36.6093540   4.8758940   6.4756630  36.8978430   5.4562050
   7.5413220  37.4193650   4.5158500   8.7963840  46.2268670   7.1386420
   8.1127360  46.8967780   7.1303090   9.3358130  46.4249320   6.3731280
  10.2487980  36.0548330   5.2668150   9.3012890  36.0887310   5.3983580
  10.5737970  36.8687280   5.6517510   6.3322580  48.0712800   5.8531600
   6.3449740  47.6675090   4.9853860   5.7797800  48.8460090   5.7493030
   5.7308020  42.9742640   7.1814210   6.1476810  42.7602750   6.3467670
   6.4547840  43.2315430   7.7522830   9.6770120  41.3729860   7.2730450
   8.8488750  41.4422950   6.7980580  10.2720600  41.9584170   6.8046280
   6.6412130  38.1599180   8.2185320   6.2283310  38.9852890   8.4725310
   5.9088080  37.5744220   8.0261680   7.3312230  48.2058510   8.9066300
   6.8542790  49.0130700   8.7138910   6.6474020  47.5536840   9.0592510
  10.9111440  47.9670450  13.9757690  11.3871160  48.4453340  14.6546770
  11.5318600  47.8987940  13.2503190  10.3144690  45.1583300  11.1357700
  10.4407750  44.9195180  10.2174880  10.3566070  44.3267840  11.6079780
   4.1761430  48.8611300   9.7052510   4.6906100  48.7719310  10.5074940
   3.3330510  49.2071000   9.9980420   5.4191890  48.2816910   1.7683000
   5.8748840  47.5006290   2.0821620   5.7584410  48.9923730   2.3124180
  10.1668700  37.2115760  12.1007440   9.5512970  37.7195430  11.5722900
   9.8465120  36.3114090  12.0433380   2.2283020  36.0507650   9.5669630
   1.7662390  36.2590670  10.3789570   1.8261130  35.2367000   9.2640300
   7.2287530  37.2716600  10.6966290   6.3781120  36.9722350  11.0175360
   7.0689320  37.5158610   9.7850110   4.3237240  38.7718350  12.7965080
   4.6490650  37.9382100  12.4567310   5.1117570  39.2946870  12.9443410
   1.8782230  35.7006920  13.5806350   1.1880550  35.5079120  14.2152440
   2.6214530  35.9841560  14.1130650   4.1545200  39.5405360   6.4160270
   3.4226320  40.0492170   6.7650370   3.7569540  38.7235340   6.1149050
   4.6171110  34.9939040   5.8283210   4.6343850  35.4447690   6.6725060
   4.3686690  34.0944680   6.0416650   8.0441860  32.4071220  11.6669590
   8.3687630  31.6760880  12.1927570   8.0798370  32.0884860  10.7650580
   7.9699700  42.5196330   5.2755620   8.6898820  43.0151620   4.8851730
   7.7681520  41.8414220   4.6309490   3.3518500  42.5905390  11.1624620
   3.2855810  41.6701060  10.9082210   2.7223640  42.6880830  11.8769260
   3.2835230  45.4125960  10.9128420   3.2979770  44.4806920  10.6947330
   2.5760330  45.4985720  11.5518190   9.4946440  42.0533300  10.2597000
   8.7694630  42.6462080  10.0626390  10.0221900  42.0456840   9.4610370
   5.0246030  43.7793470   3.7580850   5.3769850  43.1821600   3.0982220
   4.1408360  43.4537700   3.9289100   2.7169130  47.0543530   8.0068920
   3.3611350  47.2602910   8.6842340   3.0798570  46.2931930   7.5539770
   3.9901210  45.0575880   6.7246370   4.6323440  44.3569040   6.8378540
   4.5150560  45.8374320   6.5443260   5.7638830  45.8570780   9.9282430
   6.0995070  46.4437470  10.6060350   4.8439170  45.7263490  10.1580220
   4.8081010  36.1388270   8.4607290   5.1761830  35.3183480   8.7886860
   3.9479210  36.1990160   8.8762940   1.7683000  38.7927860   8.6845260
   2.2668250  39.2673680   9.3497110   1.9105950  37.8691380   8.8915290
   8.9749860  35.0095820   9.5273650   8.4723460  35.7501220   9.8667460
   9.7906520  35.3979820   9.2110440   7.2671870  40.2529000   2.9735010
   6.3262010  40.2679230   3.1482700   7.5815940  39.4664960   3.4195310
   9.2697450  47.4237850   4.6489270   9.3944870  48.2469020   5.1213080
  10.1363010  47.2128580   4.3013420   4.5837890  44.8095000  13.4567390
   3.9776050  44.8326600  12.7163140   4.2792000  44.0778040  13.9934640
   6.0138260  48.5375290  12.0676800   6.9660010  48.4533310  12.0177040
   5.8666480  49.2017000  12.7410590   7.6632360  44.3264910  12.5438570
   8.4041830  44.6640670  12.0406030   6.9005040  44.4956970  11.9908340
   6.3378020  42.3779740  11.0793780   6.7519040  42.5324820  11.9284200
   5.4029020  42.5034960  11.2419560   6.8100190  39.7175900  13.0832930
   7.3920960  38.9628220  12.9953410   6.9861960  40.2483340  12.3064410
   3.4357150  40.0616400  10.4327550   3.5553360  39.4657540  11.1722390
   4.2951150  40.0986090  10.0128850   5.7745050  40.6153590   9.0090060
   5.2480270  41.1396210   8.4055200   6.1176390  41.2480980   9.6399790
   5.0219350  36.2203560  11.9236390   4.3334870  35.5585100  11.8586380
   5.7425370  35.7741830  12.3684850   9.3342560  47.5666620  10.7526650
   8.7344550  47.6259180  10.0090570   9.4636460  46.6271600  10.8823500
  11.0360440  42.9082020   3.4372490  11.4069270  42.1249340   3.0308460
  11.6762370  43.5971120   3.2589790   8.0194200  44.2918600   8.8502810
   7.2054040  44.7215760   9.1128600   8.4268400  44.9037010   8.2371860
   9.3684600  39.4306800  10.3772030   9.1370690  39.2019550   9.4769980
   9.6289150  40.3506350  10.3316920   7.8072670  34.6563230  13.1551730
   8.6842850  34.6646630  13.5385730   7.8193510  33.9194070  12.5444080
   9.2535940  38.5092770   4.0439750   9.7773420  38.0155420   3.4129920
   9.8395360  38.6443130   4.7887320   9.4325660  38.5932640   7.5659300
   8.4828370  38.5596180   7.6804290   9.6138670  39.5032750   7.3309070
  10.1723070  36.4027070   2.5169840  10.0622350  36.2483110   3.4552110
  10.9330660  35.8748010   2.2745250   8.5188790  32.3421200   8.9752840
   9.1561010  32.9555340   9.3412030   8.6663680  32.3781860   8.0302070
   8.0770250  49.0437200   2.3771080   8.6729320  48.7221770   1.7005500
   8.3348400  48.5709020   3.1684350   1.8893270  33.4947390  11.8827940
   1.8282160  34.0869220  12.6323350   2.8293650  33.3873350  11.7378200
   4.5267830  33.1517450  11.5220230   5.1408240  33.4696740  10.8601310
   5.0717390  32.6666040  12.1416090  10.9443010  49.0509080   8.9282070
  10.4501290  49.4477950   8.2109200  10.3356300  48.4258290   9.3219350
   5.2675870  31.7149590   7.8489520   4.3935710  32.0484700   7.6462450
   5.1586620  31.2422770   8.6741390   6.1747850  33.9220460   9.2331240
   5.8461210  33.1072220   8.8532970   7.1230150  33.8790270   9.1096930
   8.6282460  49.6932500   6.2068810   8.1685430  50.4448310   5.8326830
   7.9994920  48.9738970   6.1483610   1.7973680  48.8929230   6.2085920
   2.0851490  48.6383530   5.3318930   2.3096900  48.3406590   6.7991490
   3.0150690  32.6319430   6.7882430   2.2322480  33.1064930   7.0679190
   2.7213620  31.7274260   6.6795610   7.5671760  33.3342530   4.8331520
   8.0079850  33.2787630   3.9853120   7.2979350  34.2500540   4.9041700
   9.4310330  32.9657770   2.8440340   9.3698730  32.0218990   2.6971360
  10.2102360  33.0737860   3.3893800   5.4029890  31.7148630   3.5381530
   6.0059260  32.2868840   4.0130050   4.6622880  32.2788070   3.3155430
   1.8646040  49.8145330  13.5754120   2.7913350  49.5789600  13.6190080
   1.8496470  50.6417330  13.0940150   5.6525110  31.8943660  13.9176470
   5.5390560  32.2138270  14.8127990   6.4694850  32.2956170  13.6213750
   8.4323600  49.0415190  13.3995160   9.2248920  48.5464420  13.1921120
   8.7256750  49.7205330  14.0070770   4.5583260  21.1392640  96.9272150
   4.4777310  20.2247250  96.6563860   4.1447680  21.6359710  96.2211860
   2.6901300  22.9171660  98.8081420   1.9143400  22.4372100  99.0979990
   3.3414230  22.2377310  98.6337580   6.7108730  27.3231850  97.5880550
   6.2490260  26.5519090  97.9167720   7.5234280  27.3497920  98.0933000
   2.9372040  29.6089860  97.2084540   2.3183480  30.0647360  96.6378980
   3.7923820  29.7641320  96.8074240   2.1310290  25.5928850  98.8151580
   2.0618570  24.6518790  98.6540710   2.8930150  25.6830260  99.3874150
   3.1615460  18.3999230  99.0420510   3.5380280  17.5271110  98.9294180
   3.0634970  18.7357930  98.1510950   6.9439580  15.8949670  95.9748850
   7.7649200  15.4046240  96.0174330   6.9773660  16.4847330  96.7280690
   3.8035390  24.4929100  94.6016450   3.1852660  24.9578550  94.0379170
   4.3158640  25.1856580  95.0185960   7.1801060  17.8350050  98.7476390
   6.4756630  18.1234940  99.3279500   7.5413220  18.6450160  98.3875950
   8.7963840  27.4525180 101.0103870   8.1127360  28.1224290 101.0020540
   9.3358130  27.6505830 100.2448730  10.2487980  17.2804840  99.1385600
   9.3012890  17.3143820  99.2701030  10.5737970  18.0943790  99.5234960
   6.3322580  29.2969310  99.7249050   6.3449740  28.8931600  98.8571310
   5.7797800  30.0716600  99.6210480   7.6268000  26.0185530  94.8139220
   7.5164330  25.0759860  94.9388640   7.6236250  26.3801170  95.7001980
   5.7308020  24.1999150 101.0531660   6.1476810  23.9859260 100.2185120
   6.4547840  24.4571940 101.6240280   3.1688280  21.6450850  94.1701710
   2.2417560  21.5788230  94.3990180   3.3213100  22.5830980  94.0556950
   3.1557360  17.9167850  91.1668870   2.2161030  18.0781810  91.2521330
   3.4740620  18.6353530  90.6204860   9.6770120  22.5986370 101.1447900
   8.8488750  22.6679460 100.6698030  10.2720600  23.1840680 100.6763730
   7.1985570  23.2071150  94.6736960   6.5797990  22.8690700  94.0263260
   7.1810020  22.5630910  95.3816150   5.3750270  22.4457960  91.6809710
   5.8143550  21.6080390  91.5347530   6.0878690  23.0787360  91.7673850
   3.4845650  27.3854030  95.6490950   3.9241560  28.1278360  95.2346340
   3.4232540  27.6280600  96.5729910   8.9567410  13.7000770  89.9950750
   8.6440070  13.7927600  90.8949820   9.7179880  14.2781800  89.9448180
   6.1515830  30.3723150  93.0053960   5.9916970  30.0826090  93.9035790
   5.9862540  29.5963280  92.4699190   5.8541960  27.8810710  91.5651960
   5.1607120  27.8788000  90.9054240   6.5964820  27.4570030  91.1346130
   5.4191890  29.5073420  95.6400450   5.8748840  28.7262800  95.9539070
   5.7584410  30.2180240  96.1841630   4.9625190  19.5392580  94.1623660
   4.3634080  20.2628380  93.9787280   5.5104800  19.4769360  93.3800110
   3.5690060  18.1756120  96.1926940   3.9619630  18.4928320  95.3795630
   3.9306910  17.2968000  96.3071460   4.1545200  20.7661870 100.2877720
   3.4226320  21.2748680 100.6367820   3.7569540  19.9491850  99.9866500
   4.6171110  16.2195550  99.7000660   4.6343850  16.6704200 100.5442510
   4.3686690  15.3201190  99.9134100   7.9699700  23.7452840  99.1473070
   8.6898820  24.2408130  98.7569180   7.7681520  23.0670730  98.5026940
   3.4309640  15.1390800  93.2902460   2.6174250  14.6403970  93.2147770
   3.2371590  15.9789050  92.8738810   6.1458030  19.5110450  91.5864620
   7.0337650  19.8227680  91.4115960   6.1163120  18.6382700  91.1945200
   2.1418620  25.6834140  92.2652790   2.4834320  26.4276370  91.7696110
   1.3131330  25.9965260  92.6277620   8.4172300  20.8222290  91.0544480
   8.3336020  21.2536510  90.2040920   9.1366490  21.2820640  91.4871300
   9.4459550  27.6764550  93.7826610   8.8035710  27.0220170  94.0570330
   9.0590210  28.0819640  93.0067280   5.0246030  25.0049980  97.6298300
   5.3769850  24.4078110  96.9699670   4.1408360  24.6794210  97.8006550
   3.9901210  26.2832390 100.5963820   4.6323440  25.5825550 100.7095990
   4.5150560  27.0630830 100.4160710   7.8356930  26.5681010  90.3202960
   7.6094510  25.8511450  90.9127600   7.4453130  26.3193450  89.4824710
   7.4173180  24.4852950  91.9817120   7.1294880  24.9465640  92.7695000
   8.2125350  24.0250720  92.2501340   8.1743040  16.3201720  93.1412300
   7.5456200  16.4247390  92.4270530   7.6794960  16.5398500  93.9306180
   2.6201180  28.0407310  90.5746280   2.7213160  27.8371300  89.6448260
   1.7202920  27.7865590  90.7794060   4.1742500  15.3238330  95.9965970
   4.0510280  15.3424460  95.0475480   5.1227060  15.3717270  96.1164370
   7.2671870  21.4785510  96.8452460   6.3262010  21.4935740  97.0200150
   7.5815940  20.6921470  97.2912760   9.2697450  28.6494360  98.5206720
   9.3944870  29.4725530  98.9930530  10.1363010  28.4385090  98.1730870
   8.9047460  29.1426010  91.4386160   8.6188970  28.7291150  90.6240340
   8.7067010  30.0713720  91.3186680   3.6097420  24.1979320  90.4833760
   3.0607520  24.6448620  91.1276500   4.2316680  23.6928570  91.0071430
   1.7900180  22.1807850  89.6276160   2.3105840  21.4656870  89.2617310
   2.4368580  22.8193720  89.9276670   5.6519750  14.0411700  91.8544100
   5.9322040  13.1979600  92.2103520   4.8785480  14.2734810  92.3682850
   2.3548210  30.2619460  91.9177900   3.2499000  30.6004430  91.9396660
   2.3865840  29.5398870  91.2902180  10.5744010  26.5340950  89.9613810
   9.7436970  26.6017600  90.4321040  10.7515840  27.4245070  89.6580670
  10.0300470  23.2788430  92.4648010  10.7919380  23.8485080  92.5707700
  10.0454840  22.7115630  93.2356320  11.0360440  24.1338530  97.3089940
  11.4069270  23.3505850  96.9025910  11.6762370  24.8227630  97.1307240
  10.0819640  23.5722800  89.6220530  10.3568480  24.4801680  89.4939750
   9.8930380  23.5085330  90.5582520   6.4795250  16.5967650  90.9174160
   6.8980130  16.4098630  90.0770820   6.1731310  15.7446700  91.2277090
   9.9784980  21.5091790  94.6149960   9.6028580  20.7419720  94.1831250
   9.2488100  21.8914490  95.1024890   9.2535940  19.7349280  97.9157200
   9.7773420  19.2411930  97.2847370   9.8395360  19.8699640  98.6604770
   9.4325660  19.8189150 101.4376750   8.4828370  19.7852690 101.5521740
   9.6138670  20.7289260 101.2026520   8.7435910  18.9922630  93.8549610
   9.2395030  18.7593500  94.6398490   8.5451980  18.1534470  93.4387250
  10.1723070  17.6283580  96.3887290  10.0622350  17.4739620  97.3269560
  10.9330660  17.1004520  96.1462700  11.0613340  15.4591500  89.6293430
  11.9862650  15.3272680  89.4211720  11.0389130  15.5384320  90.5829880
  11.1351830  16.2302160  92.2550140  10.3403330  16.1647280  92.7843050
  11.3395110  17.1652800  92.2435490   8.0770250  30.2693710  96.2488530
   8.6729320  29.9478280  95.5722950   8.3348400  29.7965530  97.0401800
   8.6282460  30.9189010 100.0786260   8.1685430  31.6704820  99.7044280
   7.9994920  30.1995480 100.0201060   1.7973680  30.1185740 100.0803370
   2.0851490  29.8640040  99.2036380   2.3096900  29.5663100 100.6708940
   3.0150690  13.8575940 100.6599880   2.2322480  14.3321440 100.9396640
   2.7213620  12.9530770 100.5513060   7.5671760  14.5599040  98.7048970
   8.0079850  14.5044140  97.8570570   7.2979350  15.4757050  98.7759150
   9.4310330  14.1914280  96.7157790   9.3698730  13.2475500  96.5688810
  10.2102360  14.2994370  97.2611250   5.4029890  12.9405140  97.4098980
   6.0059260  13.5125350  97.8847500   4.6622880  13.5044580  97.1872880
   8.5464490  13.3426700  92.6839260   8.7415120  14.2410150  92.9506690
   7.7594360  13.1113780  93.1772210  10.0991100  30.5827410  94.4445820
  10.2743290  29.8965150  93.8006740   9.4012670  31.1074460  94.0522490
   4.5583260  21.1392640  78.1528660   4.4777310  20.2247250  77.8820370
   4.1447680  21.6359710  77.4468370   2.6901300  22.9171660  80.0337930
   1.9143400  22.4372100  80.3236500   3.3414230  22.2377310  79.8594090
   6.7108730  27.3231850  78.8137060   6.2490260  26.5519090  79.1424230
   7.5234280  27.3497920  79.3189510   2.9372040  29.6089860  78.4341050
   2.3183480  30.0647360  77.8635490   3.7923820  29.7641320  78.0330750
   2.1310290  25.5928850  80.0408090   2.0618570  24.6518790  79.8797220
   2.8930150  25.6830260  80.6130660   3.1615460  18.3999230  80.2677020
   3.5380280  17.5271110  80.1550690   3.0634970  18.7357930  79.3767460
   6.9439580  15.8949670  77.2005360   7.7649200  15.4046240  77.2430840
   6.9773660  16.4847330  77.9537200  11.2339130  17.9116420  83.7648990
  10.5291300  18.2998130  83.2464100  11.4997050  18.6066710  84.3669920
   3.8035390  24.4929100  75.8272960   3.1852660  24.9578550  75.2635680
   4.3158640  25.1856580  76.2442470   7.1801060  17.8350050  79.9732900
   6.4756630  18.1234940  80.5536010   7.5413220  18.6450160  79.6132460
   8.7963840  27.4525180  82.2360380   8.1127360  28.1224290  82.2277050
   9.3358130  27.6505830  81.4705240  10.2487980  17.2804840  80.3642110
   9.3012890  17.3143820  80.4957540  10.5737970  18.0943790  80.7491470
   6.3322580  29.2969310  80.9505560   6.3449740  28.8931600  80.0827820
   5.7797800  30.0716600  80.8466990   7.6268000  26.0185530  76.0395730
   7.5164330  25.0759860  76.1645150   7.6236250  26.3801170  76.9258490
   5.7308020  24.1999150  82.2788170   6.1476810  23.9859260  81.4441630
   6.4547840  24.4571940  82.8496790   3.1688280  21.6450850  75.3958220
   2.2417560  21.5788230  75.6246690   3.3213100  22.5830980  75.2813460
   3.1557360  17.9167850  72.3925380   2.2161030  18.0781810  72.4777840
   3.4740620  18.6353530  71.8461370   9.6770120  22.5986370  82.3704410
   8.8488750  22.6679460  81.8954540  10.2720600  23.1840680  81.9020240
   7.1985570  23.2071150  75.8993470   6.5797990  22.8690700  75.2519770
   7.1810020  22.5630910  76.6072660   6.6412130  19.3855690  83.3159280
   6.2283310  20.2109400  83.5699270   5.9088080  18.8000730  83.1235640
   7.3312230  29.4315020  84.0040260   6.8542790  30.2387210  83.8112870
   6.6474020  28.7793350  84.1566470   5.3750270  22.4457960  72.9066220
   5.8143550  21.6080390  72.7604040   6.0878690  23.0787360  72.9930360
   3.4845650  27.3854030  76.8747460   3.9241560  28.1278360  76.4602850
   3.4232540  27.6280600  77.7986420   8.9567410  13.7000770  71.2207260
   8.6440070  13.7927600  72.1206330   9.7179880  14.2781800  71.1704690
  10.9111440  29.1926960  89.0731650  11.3871160  29.6709850  89.7520730
  11.5318600  29.1244450  88.3477150  10.3144690  26.3839810  86.2331660
  10.4407750  26.1451690  85.3148840  10.3566070  25.5524350  86.7053740
   4.1761430  30.0867810  84.8026470   4.6906100  29.9975820  85.6048900
   3.3330510  30.4327510  85.0954380   6.1515830  30.3723150  74.2310470
   5.9916970  30.0826090  75.1292300   5.9862540  29.5963280  73.6955700
   5.8541960  27.8810710  72.7908470   5.1607120  27.8788000  72.1310750
   6.5964820  27.4570030  72.3602640   5.4191890  29.5073420  76.8656960
   5.8748840  28.7262800  77.1795580   5.7584410  30.2180240  77.4098140
  10.1668700  18.4372270  87.1981400   9.5512970  18.9451940  86.6696860
   9.8465120  17.5370600  87.1407340   2.2283020  17.2764160  84.6643590
   1.7662390  17.4847180  85.4763530   1.8261130  16.4623510  84.3614260
   7.2287530  18.4973110  85.7940250   6.3781120  18.1978860  86.1149320
   7.0689320  18.7415120  84.8824070   4.3237240  19.9974860  87.8939040
   4.6490650  19.1638610  87.5541270   5.1117570  20.5203380  88.0417370
   4.9625190  19.5392580  75.3880170   4.3634080  20.2628380  75.2043790
   5.5104800  19.4769360  74.6056620   3.5690060  18.1756120  77.4183450
   3.9619630  18.4928320  76.6052140   3.9306910  17.2968000  77.5327970
   1.8782230  16.9263430  88.6780310   1.1880550  16.7335630  89.3126400
   2.6214530  17.2098070  89.2104610   4.1545200  20.7661870  81.5134230
   3.4226320  21.2748680  81.8624330   3.7569540  19.9491850  81.2123010
   4.6171110  16.2195550  80.9257170   4.6343850  16.6704200  81.7699020
   4.3686690  15.3201190  81.1390610   8.0441860  13.6327730  86.7643550
   8.3687630  12.9017390  87.2901530   8.0798370  13.3141370  85.8624540
   7.9699700  23.7452840  80.3729580   8.6898820  24.2408130  79.9825690
   7.7681520  23.0670730  79.7283450   3.4309640  15.1390800  74.5158970
   2.6174250  14.6403970  74.4404280   3.2371590  15.9789050  74.0995320
   3.3518500  23.8161900  86.2598580   3.2855810  22.8957570  86.0056170
   2.7223640  23.9137340  86.9743220   6.1458030  19.5110450  72.8121130
   7.0337650  19.8227680  72.6372470   6.1163120  18.6382700  72.4201710
   2.1418620  25.6834140  73.4909300   2.4834320  26.4276370  72.9952620
   1.3131330  25.9965260  73.8534130   3.2835230  26.6382470  86.0102380
   3.2979770  25.7063430  85.7921290   2.5760330  26.7242230  86.6492150
   8.4172300  20.8222290  72.2800990   8.3336020  21.2536510  71.4297430
   9.1366490  21.2820640  72.7127810   9.4946440  23.2789810  85.3570960
   8.7694630  23.8718590  85.1600350  10.0221900  23.2713350  84.5584330
   9.4459550  27.6764550  75.0083120   8.8035710  27.0220170  75.2826840
   9.0590210  28.0819640  74.2323790   5.0246030  25.0049980  78.8554810
   5.3769850  24.4078110  78.1956180   4.1408360  24.6794210  79.0263060
   2.7169130  28.2800040  83.1042880   3.3611350  28.4859420  83.7816300
   3.0798570  27.5188440  82.6513730   3.9901210  26.2832390  81.8220330
   4.6323440  25.5825550  81.9352500   4.5150560  27.0630830  81.6417220
   7.8356930  26.5681010  71.5459470   7.6094510  25.8511450  72.1384110
   7.4453130  26.3193450  70.7081220   5.7638830  27.0827290  85.0256390
   6.0995070  27.6693980  85.7034310   4.8439170  26.9520000  85.2554180
   7.4173180  24.4852950  73.2073630   7.1294880  24.9465640  73.9951510
   8.2125350  24.0250720  73.4757850   4.8081010  17.3644780  83.5581250
   5.1761830  16.5439990  83.8860820   3.9479210  17.4246670  83.9736900
   8.1743040  16.3201720  74.3668810   7.5456200  16.4247390  73.6527040
   7.6794960  16.5398500  75.1562690   2.6201180  28.0407310  71.8002790
   2.7213160  27.8371300  70.8704770   1.7202920  27.7865590  72.0050570
   1.7683000  20.0184370  83.7819220   2.2668250  20.4930190  84.4471070
   1.9105950  19.0947890  83.9889250   4.1742500  15.3238330  77.2222480
   4.0510280  15.3424460  76.2731990   5.1227060  15.3717270  77.3420880
   8.9749860  16.2352330  84.6247610   8.4723460  16.9757730  84.9641420
   9.7906520  16.6236330  84.3084400   7.2671870  21.4785510  78.0708970
   6.3262010  21.4935740  78.2456660   7.5815940  20.6921470  78.5169270
   9.2697450  28.6494360  79.7463230   9.3944870  29.4725530  80.2187040
  10.1363010  28.4385090  79.3987380   4.5837890  26.0351510  88.5541350
   3.9776050  26.0583110  87.8137100   4.2792000  25.3034550  89.0908600
   6.0138260  29.7631800  87.1650760   6.9660010  29.6789820  87.1151000
   5.8666480  30.4273510  87.8384550   8.9047460  29.1426010  72.6642670
   8.6188970  28.7291150  71.8496850   8.7067010  30.0713720  72.5443190
   3.6097420  24.1979320  71.7090270   3.0607520  24.6448620  72.3533010
   4.2316680  23.6928570  72.2327940   7.6632360  25.5521420  87.6412530
   8.4041830  25.8897180  87.1379990   6.9005040  25.7213480  87.0882300
   1.7900180  22.1807850  70.8532670   2.3105840  21.4656870  70.4873820
   2.4368580  22.8193720  71.1533180   6.3378020  23.6036250  86.1767740
   6.7519040  23.7581330  87.0258160   5.4029020  23.7291470  86.3393520
   6.8100190  20.9432410  88.1806890   7.3920960  20.1884730  88.0927370
   6.9861960  21.4739850  87.4038370   3.4357150  21.2872910  85.5301510
   3.5553360  20.6914050  86.2696350   4.2951150  21.3242600  85.1102810
   5.7745050  21.8410100  84.1064020   5.2480270  22.3652720  83.5029160
   6.1176390  22.4737490  84.7373750   5.0219350  17.4460070  87.0210350
   4.3334870  16.7841610  86.9560340   5.7425370  16.9998340  87.4658810
   5.6519750  14.0411700  73.0800610   5.9322040  13.1979600  73.4360030
   4.8785480  14.2734810  73.5939360   2.3548210  30.2619460  73.1434410
   3.2499000  30.6004430  73.1653170   2.3865840  29.5398870  72.5158690
   9.3342560  28.7923130  85.8500610   8.7344550  28.8515690  85.1064530
   9.4636460  27.8528110  85.9797460  10.5744010  26.5340950  71.1870320
   9.7436970  26.6017600  71.6577550  10.7515840  27.4245070  70.8837180
  10.0300470  23.2788430  73.6904520  10.7919380  23.8485080  73.7964210
  10.0454840  22.7115630  74.4612830  11.0360440  24.1338530  78.5346450
  11.4069270  23.3505850  78.1282420  11.6762370  24.8227630  78.3563750
   8.0194200  25.5175110  83.9476770   7.2054040  25.9472270  84.2102560
   8.4268400  26.1293520  83.3345820  10.0819640  23.5722800  70.8477040
  10.3568480  24.4801680  70.7196260   9.8930380  23.5085330  71.7839030
   6.4795250  16.5967650  72.1430670   6.8980130  16.4098630  71.3027330
   6.1731310  15.7446700  72.4533600   9.9784980  21.5091790  75.8406470
   9.6028580  20.7419720  75.4087760   9.2488100  21.8914490  76.3281400
   9.3684600  20.6563310  85.4745990   9.1370690  20.4276060  84.5743940
   9.6289150  21.5762860  85.4290880   7.8072670  15.8819740  88.2525690
   8.6842850  15.8903140  88.6359690   7.8193510  15.1450580  87.6418040
   9.2535940  19.7349280  79.1413710   9.7773420  19.2411930  78.5103880
   9.8395360  19.8699640  79.8861280   9.4325660  19.8189150  82.6633260
   8.4828370  19.7852690  82.7778250   9.6138670  20.7289260  82.4283030
   8.7435910  18.9922630  75.0806120   9.2395030  18.7593500  75.8655000
   8.5451980  18.1534470  74.6643760  10.1723070  17.6283580  77.6143800
  10.0622350  17.4739620  78.5526070  10.9330660  17.1004520  77.3719210
   8.5188790  13.5677710  84.0726800   9.1561010  14.1811850  84.4385990
   8.6663680  13.6038370  83.1276030  11.0613340  15.4591500  70.8549940
  11.9862650  15.3272680  70.6468230  11.0389130  15.5384320  71.8086390
  11.1351830  16.2302160  73.4806650  10.3403330  16.1647280  74.0099560
  11.3395110  17.1652800  73.4692000   8.0770250  30.2693710  77.4745040
   8.6729320  29.9478280  76.7979460   8.3348400  29.7965530  78.2658310
   1.8893270  14.7203900  86.9801900   1.8282160  15.3125730  87.7297310
   2.8293650  14.6129860  86.8352160   4.5267830  14.3773960  86.6194190
   5.1408240  14.6953250  85.9575270   5.0717390  13.8922550  87.2390050
  10.9443010  30.2765590  84.0256030  10.4501290  30.6734460  83.3083160
  10.3356300  29.6514800  84.4193310   5.2675870  12.9406100  82.9463480
   4.3935710  13.2741210  82.7436410   5.1586620  12.4679280  83.7715350
   6.1747850  15.1476970  84.3305200   5.8461210  14.3328730  83.9506930
   7.1230150  15.1046780  84.2070890   8.6282460  30.9189010  81.3042770
   8.1685430  31.6704820  80.9300790   7.9994920  30.1995480  81.2457570
   1.7973680  30.1185740  81.3059880   2.0851490  29.8640040  80.4292890
   2.3096900  29.5663100  81.8965450   3.0150690  13.8575940  81.8856390
   2.2322480  14.3321440  82.1653150   2.7213620  12.9530770  81.7769570
   7.5671760  14.5599040  79.9305480   8.0079850  14.5044140  79.0827080
   7.2979350  15.4757050  80.0015660   9.4310330  14.1914280  77.9414300
   9.3698730  13.2475500  77.7945320  10.2102360  14.2994370  78.4867760
   5.4029890  12.9405140  78.6355490   6.0059260  13.5125350  79.1104010
   4.6622880  13.5044580  78.4129390   8.5464490  13.3426700  73.9095770
   8.7415120  14.2410150  74.1763200   7.7594360  13.1113780  74.4028720
   1.8646040  31.0401840  88.6728080   2.7913350  30.8046110  88.7164040
   1.8496470  31.8673840  88.1914110  10.0991100  30.5827410  75.6702330
  10.2743290  29.8965150  75.0263250   9.4012670  31.1074460  75.2779000
   5.6525110  13.1200170  89.0150430   5.5390560  13.4394780  89.9101950
   6.4694850  13.5212680  88.7187710   8.4323600  30.2671700  88.4969120
   9.2248920  29.7720930  88.2895080   8.7256750  30.9461840  89.1044730
   4.5583260  21.1392640  59.3785170   4.4777310  20.2247250  59.1076880
   4.1447680  21.6359710  58.6724880   2.6901300  22.9171660  61.2594440
   1.9143400  22.4372100  61.5493010   3.3414230  22.2377310  61.0850600
   6.7108730  27.3231850  60.0393570   6.2490260  26.5519090  60.3680740
   7.5234280  27.3497920  60.5446020   2.9372040  29.6089860  59.6597560
   2.3183480  30.0647360  59.0892000   3.7923820  29.7641320  59.2587260
   2.1310290  25.5928850  61.2664600   2.0618570  24.6518790  61.1053730
   2.8930150  25.6830260  61.8387170   3.1615460  18.3999230  61.4933530
   3.5380280  17.5271110  61.3807200   3.0634970  18.7357930  60.6023970
   6.9439580  15.8949670  58.4261870   7.7649200  15.4046240  58.4687350
   6.9773660  16.4847330  59.1793710  11.2339130  17.9116420  64.9905500
  10.5291300  18.2998130  64.4720610  11.4997050  18.6066710  65.5926430
   3.8035390  24.4929100  57.0529470   3.1852660  24.9578550  56.4892190
   4.3158640  25.1856580  57.4698980   7.1801060  17.8350050  61.1989410
   6.4756630  18.1234940  61.7792520   7.5413220  18.6450160  60.8388970
   8.7963840  27.4525180  63.4616890   8.1127360  28.1224290  63.4533560
   9.3358130  27.6505830  62.6961750  10.2487980  17.2804840  61.5898620
   9.3012890  17.3143820  61.7214050  10.5737970  18.0943790  61.9747980
   6.3322580  29.2969310  62.1762070   6.3449740  28.8931600  61.3084330
   5.7797800  30.0716600  62.0723500   7.6268000  26.0185530  57.2652240
   7.5164330  25.0759860  57.3901660   7.6236250  26.3801170  58.1515000
   5.7308020  24.1999150  63.5044680   6.1476810  23.9859260  62.6698140
   6.4547840  24.4571940  64.0753300   3.1688280  21.6450850  56.6214730
   2.2417560  21.5788230  56.8503200   3.3213100  22.5830980  56.5069970
   3.1557360  17.9167850  53.6181890   2.2161030  18.0781810  53.7034350
   3.4740620  18.6353530  53.0717880   9.6770120  22.5986370  63.5960920
   8.8488750  22.6679460  63.1211050  10.2720600  23.1840680  63.1276750
   7.1985570  23.2071150  57.1249980   6.5797990  22.8690700  56.4776280
   7.1810020  22.5630910  57.8329170   6.6412130  19.3855690  64.5415790
   6.2283310  20.2109400  64.7955780   5.9088080  18.8000730  64.3492150
   7.3312230  29.4315020  65.2296770   6.8542790  30.2387210  65.0369380
   6.6474020  28.7793350  65.3822980   5.3750270  22.4457960  54.1322730
   5.8143550  21.6080390  53.9860550   6.0878690  23.0787360  54.2186870
   3.4845650  27.3854030  58.1003970   3.9241560  28.1278360  57.6859360
   3.4232540  27.6280600  59.0242930   8.9567410  13.7000770  52.4463770
   8.6440070  13.7927600  53.3462840   9.7179880  14.2781800  52.3961200
  10.9111440  29.1926960  70.2988160  11.3871160  29.6709850  70.9777240
  11.5318600  29.1244450  69.5733660  10.3144690  26.3839810  67.4588170
  10.4407750  26.1451690  66.5405350  10.3566070  25.5524350  67.9310250
   4.1761430  30.0867810  66.0282980   4.6906100  29.9975820  66.8305410
   3.3330510  30.4327510  66.3210890   6.1515830  30.3723150  55.4566980
   5.9916970  30.0826090  56.3548810   5.9862540  29.5963280  54.9212210
   5.8541960  27.8810710  54.0164980   5.1607120  27.8788000  53.3567260
   6.5964820  27.4570030  53.5859150   5.4191890  29.5073420  58.0913470
   5.8748840  28.7262800  58.4052090   5.7584410  30.2180240  58.6354650
  10.1668700  18.4372270  68.4237910   9.5512970  18.9451940  67.8953370
   9.8465120  17.5370600  68.3663850   2.2283020  17.2764160  65.8900100
   1.7662390  17.4847180  66.7020040   1.8261130  16.4623510  65.5870770
   7.2287530  18.4973110  67.0196760   6.3781120  18.1978860  67.3405830
   7.0689320  18.7415120  66.1080580   4.3237240  19.9974860  69.1195550
   4.6490650  19.1638610  68.7797780   5.1117570  20.5203380  69.2673880
   4.9625190  19.5392580  56.6136680   4.3634080  20.2628380  56.4300300
   5.5104800  19.4769360  55.8313130   3.5690060  18.1756120  58.6439960
   3.9619630  18.4928320  57.8308650   3.9306910  17.2968000  58.7584480
   1.8782230  16.9263430  69.9036820   1.1880550  16.7335630  70.5382910
   2.6214530  17.2098070  70.4361120   4.1545200  20.7661870  62.7390740
   3.4226320  21.2748680  63.0880840   3.7569540  19.9491850  62.4379520
   4.6171110  16.2195550  62.1513680   4.6343850  16.6704200  62.9955530
   4.3686690  15.3201190  62.3647120   8.0441860  13.6327730  67.9900060
   8.3687630  12.9017390  68.5158040   8.0798370  13.3141370  67.0881050
   7.9699700  23.7452840  61.5986090   8.6898820  24.2408130  61.2082200
   7.7681520  23.0670730  60.9539960   3.4309640  15.1390800  55.7415480
   2.6174250  14.6403970  55.6660790   3.2371590  15.9789050  55.3251830
   3.3518500  23.8161900  67.4855090   3.2855810  22.8957570  67.2312680
   2.7223640  23.9137340  68.1999730   6.1458030  19.5110450  54.0377640
   7.0337650  19.8227680  53.8628980   6.1163120  18.6382700  53.6458220
   2.1418620  25.6834140  54.7165810   2.4834320  26.4276370  54.2209130
   1.3131330  25.9965260  55.0790640   3.2835230  26.6382470  67.2358890
   3.2979770  25.7063430  67.0177800   2.5760330  26.7242230  67.8748660
   8.4172300  20.8222290  53.5057500   8.3336020  21.2536510  52.6553940
   9.1366490  21.2820640  53.9384320   9.4946440  23.2789810  66.5827470
   8.7694630  23.8718590  66.3856860  10.0221900  23.2713350  65.7840840
   9.4459550  27.6764550  56.2339630   8.8035710  27.0220170  56.5083350
   9.0590210  28.0819640  55.4580300   5.0246030  25.0049980  60.0811320
   5.3769850  24.4078110  59.4212690   4.1408360  24.6794210  60.2519570
   2.7169130  28.2800040  64.3299390   3.3611350  28.4859420  65.0072810
   3.0798570  27.5188440  63.8770240   3.9901210  26.2832390  63.0476840
   4.6323440  25.5825550  63.1609010   4.5150560  27.0630830  62.8673730
   7.8356930  26.5681010  52.7715980   7.6094510  25.8511450  53.3640620
   7.4453130  26.3193450  51.9337730   5.7638830  27.0827290  66.2512900
   6.0995070  27.6693980  66.9290820   4.8439170  26.9520000  66.4810690
   7.4173180  24.4852950  54.4330140   7.1294880  24.9465640  55.2208020
   8.2125350  24.0250720  54.7014360   4.8081010  17.3644780  64.7837760
   5.1761830  16.5439990  65.1117330   3.9479210  17.4246670  65.1993410
   8.1743040  16.3201720  55.5925320   7.5456200  16.4247390  54.8783550
   7.6794960  16.5398500  56.3819200   2.6201180  28.0407310  53.0259300
   2.7213160  27.8371300  52.0961280   1.7202920  27.7865590  53.2307080
   1.7683000  20.0184370  65.0075730   2.2668250  20.4930190  65.6727580
   1.9105950  19.0947890  65.2145760   4.1742500  15.3238330  58.4478990
   4.0510280  15.3424460  57.4988500   5.1227060  15.3717270  58.5677390
   8.9749860  16.2352330  65.8504120   8.4723460  16.9757730  66.1897930
   9.7906520  16.6236330  65.5340910   7.2671870  21.4785510  59.2965480
   6.3262010  21.4935740  59.4713170   7.5815940  20.6921470  59.7425780
   9.2697450  28.6494360  60.9719740   9.3944870  29.4725530  61.4443550
  10.1363010  28.4385090  60.6243890   4.5837890  26.0351510  69.7797860
   3.9776050  26.0583110  69.0393610   4.2792000  25.3034550  70.3165110
   6.0138260  29.7631800  68.3907270   6.9660010  29.6789820  68.3407510
   5.8666480  30.4273510  69.0641060   8.9047460  29.1426010  53.8899180
   8.6188970  28.7291150  53.0753360   8.7067010  30.0713720  53.7699700
   3.6097420  24.1979320  52.9346780   3.0607520  24.6448620  53.5789520
   4.2316680  23.6928570  53.4584450   7.6632360  25.5521420  68.8669040
   8.4041830  25.8897180  68.3636500   6.9005040  25.7213480  68.3138810
   1.7900180  22.1807850  52.0789180   2.3105840  21.4656870  51.7130330
   2.4368580  22.8193720  52.3789690   6.3378020  23.6036250  67.4024250
   6.7519040  23.7581330  68.2514670   5.4029020  23.7291470  67.5650030
   6.8100190  20.9432410  69.4063400   7.3920960  20.1884730  69.3183880
   6.9861960  21.4739850  68.6294880   3.4357150  21.2872910  66.7558020
   3.5553360  20.6914050  67.4952860   4.2951150  21.3242600  66.3359320
   5.7745050  21.8410100  65.3320530   5.2480270  22.3652720  64.7285670
   6.1176390  22.4737490  65.9630260   5.0219350  17.4460070  68.2466860
   4.3334870  16.7841610  68.1816850   5.7425370  16.9998340  68.6915320
   5.6519750  14.0411700  54.3057120   5.9322040  13.1979600  54.6616540
   4.8785480  14.2734810  54.8195870   2.3548210  30.2619460  54.3690920
   3.2499000  30.6004430  54.3909680   2.3865840  29.5398870  53.7415200
   9.3342560  28.7923130  67.0757120   8.7344550  28.8515690  66.3321040
   9.4636460  27.8528110  67.2053970  10.5744010  26.5340950  52.4126830
   9.7436970  26.6017600  52.8834060  10.7515840  27.4245070  52.1093690
  10.0300470  23.2788430  54.9161030  10.7919380  23.8485080  55.0220720
  10.0454840  22.7115630  55.6869340  11.0360440  24.1338530  59.7602960
  11.4069270  23.3505850  59.3538930  11.6762370  24.8227630  59.5820260
   8.0194200  25.5175110  65.1733280   7.2054040  25.9472270  65.4359070
   8.4268400  26.1293520  64.5602330  10.0819640  23.5722800  52.0733550
  10.3568480  24.4801680  51.9452770   9.8930380  23.5085330  53.0095540
   6.4795250  16.5967650  53.3687180   6.8980130  16.4098630  52.5283840
   6.1731310  15.7446700  53.6790110   9.9784980  21.5091790  57.0662980
   9.6028580  20.7419720  56.6344270   9.2488100  21.8914490  57.5537910
   9.3684600  20.6563310  66.7002500   9.1370690  20.4276060  65.8000450
   9.6289150  21.5762860  66.6547390   7.8072670  15.8819740  69.4782200
   8.6842850  15.8903140  69.8616200   7.8193510  15.1450580  68.8674550
   9.2535940  19.7349280  60.3670220   9.7773420  19.2411930  59.7360390
   9.8395360  19.8699640  61.1117790   9.4325660  19.8189150  63.8889770
   8.4828370  19.7852690  64.0034760   9.6138670  20.7289260  63.6539540
   8.7435910  18.9922630  56.3062630   9.2395030  18.7593500  57.0911510
   8.5451980  18.1534470  55.8900270  10.1723070  17.6283580  58.8400310
  10.0622350  17.4739620  59.7782580  10.9330660  17.1004520  58.5975720
   8.5188790  13.5677710  65.2983310   9.1561010  14.1811850  65.6642500
   8.6663680  13.6038370  64.3532540  11.0613340  15.4591500  52.0806450
  11.9862650  15.3272680  51.8724740  11.0389130  15.5384320  53.0342900
  11.1351830  16.2302160  54.7063160  10.3403330  16.1647280  55.2356070
  11.3395110  17.1652800  54.6948510   8.0770250  30.2693710  58.7001550
   8.6729320  29.9478280  58.0235970   8.3348400  29.7965530  59.4914820
   1.8893270  14.7203900  68.2058410   1.8282160  15.3125730  68.9553820
   2.8293650  14.6129860  68.0608670   4.5267830  14.3773960  67.8450700
   5.1408240  14.6953250  67.1831780   5.0717390  13.8922550  68.4646560
  10.9443010  30.2765590  65.2512540  10.4501290  30.6734460  64.5339670
  10.3356300  29.6514800  65.6449820   5.2675870  12.9406100  64.1719990
   4.3935710  13.2741210  63.9692920   5.1586620  12.4679280  64.9971860
   6.1747850  15.1476970  65.5561710   5.8461210  14.3328730  65.1763440
   7.1230150  15.1046780  65.4327400   8.6282460  30.9189010  62.5299280
   8.1685430  31.6704820  62.1557300   7.9994920  30.1995480  62.4714080
   1.7973680  30.1185740  62.5316390   2.0851490  29.8640040  61.6549400
   2.3096900  29.5663100  63.1221960   3.0150690  13.8575940  63.1112900
   2.2322480  14.3321440  63.3909660   2.7213620  12.9530770  63.0026080
   7.5671760  14.5599040  61.1561990   8.0079850  14.5044140  60.3083590
   7.2979350  15.4757050  61.2272170   9.4310330  14.1914280  59.1670810
   9.3698730  13.2475500  59.0201830  10.2102360  14.2994370  59.7124270
   5.4029890  12.9405140  59.8612000   6.0059260  13.5125350  60.3360520
   4.6622880  13.5044580  59.6385900   8.5464490  13.3426700  55.1352280
   8.7415120  14.2410150  55.4019710   7.7594360  13.1113780  55.6285230
   1.8646040  31.0401840  69.8984590   2.7913350  30.8046110  69.9420550
   1.8496470  31.8673840  69.4170620  10.0991100  30.5827410  56.8958840
  10.2743290  29.8965150  56.2519760   9.4012670  31.1074460  56.5035510
   5.6525110  13.1200170  70.2406940   5.5390560  13.4394780  71.1358460
   6.4694850  13.5212680  69.9444220   8.4323600  30.2671700  69.7225630
   9.2248920  29.7720930  69.5151590   8.7256750  30.9461840  70.3301240
   4.5583260  21.1392640  40.6041680   4.4777310  20.2247250  40.3333390
   4.1447680  21.6359710  39.8981390   2.6901300  22.9171660  42.4850950
   1.9143400  22.4372100  42.7749520   3.3414230  22.2377310  42.3107110
   6.7108730  27.3231850  41.2650080   6.2490260  26.5519090  41.5937250
   7.5234280  27.3497920  41.7702530   2.9372040  29.6089860  40.8854070
   2.3183480  30.0647360  40.3148510   3.7923820  29.7641320  40.4843770
   2.1310290  25.5928850  42.4921110   2.0618570  24.6518790  42.3310240
   2.8930150  25.6830260  43.0643680   3.1615460  18.3999230  42.7190040
   3.5380280  17.5271110  42.6063710   3.0634970  18.7357930  41.8280480
  11.2339130  17.9116420  46.2162010  10.5291300  18.2998130  45.6977120
  11.4997050  18.6066710  46.8182940   3.8035390  24.4929100  38.2785980
   3.1852660  24.9578550  37.7148700   4.3158640  25.1856580  38.6955490
   7.1801060  17.8350050  42.4245920   6.4756630  18.1234940  43.0049030
   7.5413220  18.6450160  42.0645480   8.7963840  27.4525180  44.6873400
   8.1127360  28.1224290  44.6790070   9.3358130  27.6505830  43.9218260
  10.2487980  17.2804840  42.8155130   9.3012890  17.3143820  42.9470560
  10.5737970  18.0943790  43.2004490   6.3322580  29.2969310  43.4018580
   6.3449740  28.8931600  42.5340840   5.7797800  30.0716600  43.2980010
   7.6268000  26.0185530  38.4908750   7.5164330  25.0759860  38.6158170
   7.6236250  26.3801170  39.3771510   5.7308020  24.1999150  44.7301190
   6.1476810  23.9859260  43.8954650   6.4547840  24.4571940  45.3009810
   3.1688280  21.6450850  37.8471240   2.2417560  21.5788230  38.0759710
   3.3213100  22.5830980  37.7326480   3.1557360  17.9167850  34.8438400
   2.2161030  18.0781810  34.9290860   3.4740620  18.6353530  34.2974390
   9.6770120  22.5986370  44.8217430   8.8488750  22.6679460  44.3467560
  10.2720600  23.1840680  44.3533260   7.1985570  23.2071150  38.3506490
   6.5797990  22.8690700  37.7032790   7.1810020  22.5630910  39.0585680
   6.6412130  19.3855690  45.7672300   6.2283310  20.2109400  46.0212290
   5.9088080  18.8000730  45.5748660   7.3312230  29.4315020  46.4553280
   6.8542790  30.2387210  46.2625890   6.6474020  28.7793350  46.6079490
   5.3750270  22.4457960  35.3579240   5.8143550  21.6080390  35.2117060
   6.0878690  23.0787360  35.4443380   3.4845650  27.3854030  39.3260480
   3.9241560  28.1278360  38.9115870   3.4232540  27.6280600  40.2499440
   8.9567410  13.7000770  33.6720280   8.6440070  13.7927600  34.5719350
   9.7179880  14.2781800  33.6217710  10.9111440  29.1926960  51.5244670
  11.3871160  29.6709850  52.2033750  11.5318600  29.1244450  50.7990170
  10.3144690  26.3839810  48.6844680  10.4407750  26.1451690  47.7661860
  10.3566070  25.5524350  49.1566760   4.1761430  30.0867810  47.2539490
   4.6906100  29.9975820  48.0561920   3.3330510  30.4327510  47.5467400
   6.1515830  30.3723150  36.6823490   5.9916970  30.0826090  37.5805320
   5.9862540  29.5963280  36.1468720   5.8541960  27.8810710  35.2421490
   5.1607120  27.8788000  34.5823770   6.5964820  27.4570030  34.8115660
   5.4191890  29.5073420  39.3169980   5.8748840  28.7262800  39.6308600
   5.7584410  30.2180240  39.8611160  10.1668700  18.4372270  49.6494420
   9.5512970  18.9451940  49.1209880   9.8465120  17.5370600  49.5920360
   2.2283020  17.2764160  47.1156610   1.7662390  17.4847180  47.9276550
   1.8261130  16.4623510  46.8127280   7.2287530  18.4973110  48.2453270
   6.3781120  18.1978860  48.5662340   7.0689320  18.7415120  47.3337090
   4.3237240  19.9974860  50.3452060   4.6490650  19.1638610  50.0054290
   5.1117570  20.5203380  50.4930390   4.9625190  19.5392580  37.8393190
   4.3634080  20.2628380  37.6556810   5.5104800  19.4769360  37.0569640
   3.5690060  18.1756120  39.8696470   3.9619630  18.4928320  39.0565160
   3.9306910  17.2968000  39.9840990   1.8782230  16.9263430  51.1293330
   1.1880550  16.7335630  51.7639420   2.6214530  17.2098070  51.6617630
   4.1545200  20.7661870  43.9647250   3.4226320  21.2748680  44.3137350
   3.7569540  19.9491850  43.6636030   4.6171110  16.2195550  43.3770190
   4.6343850  16.6704200  44.2212040   4.3686690  15.3201190  43.5903630
   8.0441860  13.6327730  49.2156570   8.3687630  12.9017390  49.7414550
   8.0798370  13.3141370  48.3137560   7.9699700  23.7452840  42.8242600
   8.6898820  24.2408130  42.4338710   7.7681520  23.0670730  42.1796470
   3.4309640  15.1390800  36.9671990   2.6174250  14.6403970  36.8917300
   3.2371590  15.9789050  36.5508340   3.3518500  23.8161900  48.7111600
   3.2855810  22.8957570  48.4569190   2.7223640  23.9137340  49.4256240
   6.1458030  19.5110450  35.2634150   7.0337650  19.8227680  35.0885490
   6.1163120  18.6382700  34.8714730   2.1418620  25.6834140  35.9422320
   2.4834320  26.4276370  35.4465640   1.3131330  25.9965260  36.3047150
   3.2835230  26.6382470  48.4615400   3.2979770  25.7063430  48.2434310
   2.5760330  26.7242230  49.1005170   8.4172300  20.8222290  34.7314010
   8.3336020  21.2536510  33.8810450   9.1366490  21.2820640  35.1640830
   9.4946440  23.2789810  47.8083980   8.7694630  23.8718590  47.6113370
  10.0221900  23.2713350  47.0097350   9.4459550  27.6764550  37.4596140
   8.8035710  27.0220170  37.7339860   9.0590210  28.0819640  36.6836810
   5.0246030  25.0049980  41.3067830   5.3769850  24.4078110  40.6469200
   4.1408360  24.6794210  41.4776080   2.7169130  28.2800040  45.5555900
   3.3611350  28.4859420  46.2329320   3.0798570  27.5188440  45.1026750
   3.9901210  26.2832390  44.2733350   4.6323440  25.5825550  44.3865520
   4.5150560  27.0630830  44.0930240   7.8356930  26.5681010  33.9972490
   7.6094510  25.8511450  34.5897130   7.4453130  26.3193450  33.1594240
   5.7638830  27.0827290  47.4769410   6.0995070  27.6693980  48.1547330
   4.8439170  26.9520000  47.7067200   7.4173180  24.4852950  35.6586650
   7.1294880  24.9465640  36.4464530   8.2125350  24.0250720  35.9270870
   4.8081010  17.3644780  46.0094270   5.1761830  16.5439990  46.3373840
   3.9479210  17.4246670  46.4249920   8.1743040  16.3201720  36.8181830
   7.5456200  16.4247390  36.1040060   7.6794960  16.5398500  37.6075710
   2.6201180  28.0407310  34.2515810   2.7213160  27.8371300  33.3217790
   1.7202920  27.7865590  34.4563590   1.7683000  20.0184370  46.2332240
   2.2668250  20.4930190  46.8984090   1.9105950  19.0947890  46.4402270
   4.1742500  15.3238330  39.6735500   4.0510280  15.3424460  38.7245010
   5.1227060  15.3717270  39.7933900   8.9749860  16.2352330  47.0760630
   8.4723460  16.9757730  47.4154440   9.7906520  16.6236330  46.7597420
   7.2671870  21.4785510  40.5221990   6.3262010  21.4935740  40.6969680
   7.5815940  20.6921470  40.9682290   9.2697450  28.6494360  42.1976250
   9.3944870  29.4725530  42.6700060  10.1363010  28.4385090  41.8500400
   4.5837890  26.0351510  51.0054370   3.9776050  26.0583110  50.2650120
   4.2792000  25.3034550  51.5421620   6.0138260  29.7631800  49.6163780
   6.9660010  29.6789820  49.5664020   5.8666480  30.4273510  50.2897570
   8.9047460  29.1426010  35.1155690   8.6188970  28.7291150  34.3009870
   8.7067010  30.0713720  34.9956210   3.6097420  24.1979320  34.1603290
   3.0607520  24.6448620  34.8046030   4.2316680  23.6928570  34.6840960
   7.6632360  25.5521420  50.0925550   8.4041830  25.8897180  49.5893010
   6.9005040  25.7213480  49.5395320   1.7900180  22.1807850  33.3045690
   2.3105840  21.4656870  32.9386840   2.4368580  22.8193720  33.6046200
   6.3378020  23.6036250  48.6280760   6.7519040  23.7581330  49.4771180
   5.4029020  23.7291470  48.7906540   6.8100190  20.9432410  50.6319910
   7.3920960  20.1884730  50.5440390   6.9861960  21.4739850  49.8551390
   3.4357150  21.2872910  47.9814530   3.5553360  20.6914050  48.7209370
   4.2951150  21.3242600  47.5615830   5.7745050  21.8410100  46.5577040
   5.2480270  22.3652720  45.9542180   6.1176390  22.4737490  47.1886770
   5.0219350  17.4460070  49.4723370   4.3334870  16.7841610  49.4073360
   5.7425370  16.9998340  49.9171830   5.6519750  14.0411700  35.5313630
   5.9322040  13.1979600  35.8873050   4.8785480  14.2734810  36.0452380
   2.3548210  30.2619460  35.5947430   3.2499000  30.6004430  35.6166190
   2.3865840  29.5398870  34.9671710   9.3342560  28.7923130  48.3013630
   8.7344550  28.8515690  47.5577550   9.4636460  27.8528110  48.4310480
  10.5744010  26.5340950  33.6383340   9.7436970  26.6017600  34.1090570
  10.7515840  27.4245070  33.3350200  10.0300470  23.2788430  36.1417540
  10.7919380  23.8485080  36.2477230  10.0454840  22.7115630  36.9125850
  11.0360440  24.1338530  40.9859470  11.4069270  23.3505850  40.5795440
  11.6762370  24.8227630  40.8076770   8.0194200  25.5175110  46.3989790
   7.2054040  25.9472270  46.6615580   8.4268400  26.1293520  45.7858840
  10.0819640  23.5722800  33.2990060  10.3568480  24.4801680  33.1709280
   9.8930380  23.5085330  34.2352050   6.4795250  16.5967650  34.5943690
   6.8980130  16.4098630  33.7540350   6.1731310  15.7446700  34.9046620
   9.9784980  21.5091790  38.2919490   9.6028580  20.7419720  37.8600780
   9.2488100  21.8914490  38.7794420   9.3684600  20.6563310  47.9259010
   9.1370690  20.4276060  47.0256960   9.6289150  21.5762860  47.8803900
   7.8072670  15.8819740  50.7038710   8.6842850  15.8903140  51.0872710
   7.8193510  15.1450580  50.0931060   9.2535940  19.7349280  41.5926730
   9.7773420  19.2411930  40.9616900   9.8395360  19.8699640  42.3374300
   9.4325660  19.8189150  45.1146280   8.4828370  19.7852690  45.2291270
   9.6138670  20.7289260  44.8796050   8.7435910  18.9922630  37.5319140
   9.2395030  18.7593500  38.3168020   8.5451980  18.1534470  37.1156780
  10.1723070  17.6283580  40.0656820  10.0622350  17.4739620  41.0039090
  10.9330660  17.1004520  39.8232230   8.5188790  13.5677710  46.5239820
   9.1561010  14.1811850  46.8899010   8.6663680  13.6038370  45.5789050
  11.0613340  15.4591500  33.3062960  11.9862650  15.3272680  33.0981250
  11.0389130  15.5384320  34.2599410  11.1351830  16.2302160  35.9319670
  10.3403330  16.1647280  36.4612580  11.3395110  17.1652800  35.9205020
   8.0770250  30.2693710  39.9258060   8.6729320  29.9478280  39.2492480
   8.3348400  29.7965530  40.7171330   1.8893270  14.7203900  49.4314920
   1.8282160  15.3125730  50.1810330   2.8293650  14.6129860  49.2865180
   4.5267830  14.3773960  49.0707210   5.1408240  14.6953250  48.4088290
   5.0717390  13.8922550  49.6903070  10.9443010  30.2765590  46.4769050
  10.4501290  30.6734460  45.7596180  10.3356300  29.6514800  46.8706330
   5.2675870  12.9406100  45.3976500   4.3935710  13.2741210  45.1949430
   5.1586620  12.4679280  46.2228370   6.1747850  15.1476970  46.7818220
   5.8461210  14.3328730  46.4019950   7.1230150  15.1046780  46.6583910
   8.6282460  30.9189010  43.7555790   8.1685430  31.6704820  43.3813810
   7.9994920  30.1995480  43.6970590   1.7973680  30.1185740  43.7572900
   2.0851490  29.8640040  42.8805910   2.3096900  29.5663100  44.3478470
   3.0150690  13.8575940  44.3369410   2.2322480  14.3321440  44.6166170
   2.7213620  12.9530770  44.2282590   7.5671760  14.5599040  42.3818500
   8.0079850  14.5044140  41.5340100   7.2979350  15.4757050  42.4528680
   9.4310330  14.1914280  40.3927320   9.3698730  13.2475500  40.2458340
  10.2102360  14.2994370  40.9380780   5.4029890  12.9405140  41.0868510
   6.0059260  13.5125350  41.5617030   4.6622880  13.5044580  40.8642410
   8.5464490  13.3426700  36.3608790   8.7415120  14.2410150  36.6276220
   7.7594360  13.1113780  36.8541740   1.8646040  31.0401840  51.1241100
   2.7913350  30.8046110  51.1677060   1.8496470  31.8673840  50.6427130
  10.0991100  30.5827410  38.1215350  10.2743290  29.8965150  37.4776270
   9.4012670  31.1074460  37.7292020   5.6525110  13.1200170  51.4663450
   5.5390560  13.4394780  52.3614970   6.4694850  13.5212680  51.1700730
   8.4323600  30.2671700  50.9482140   9.2248920  29.7720930  50.7408100
   8.7256750  30.9461840  51.5557750   4.5583260  21.1392640  21.8298190
   4.4777310  20.2247250  21.5589900   4.1447680  21.6359710  21.1237900
   2.6901300  22.9171660  23.7107460   1.9143400  22.4372100  24.0006030
   3.3414230  22.2377310  23.5363620   6.7108730  27.3231850  22.4906590
   6.2490260  26.5519090  22.8193760   7.5234280  27.3497920  22.9959040
   2.9372040  29.6089860  22.1110580   2.3183480  30.0647360  21.5405020
   3.7923820  29.7641320  21.7100280   2.1310290  25.5928850  23.7177620
   2.0618570  24.6518790  23.5566750   2.8930150  25.6830260  24.2900190
   3.1615460  18.3999230  23.9446550   3.5380280  17.5271110  23.8320220
   3.0634970  18.7357930  23.0536990   6.9439580  15.8949670  20.8774890
   7.7649200  15.4046240  20.9200370   6.9773660  16.4847330  21.6306730
  11.2339130  17.9116420  27.4418520  10.5291300  18.2998130  26.9233630
  11.4997050  18.6066710  28.0439450   3.8035390  24.4929100  19.5042490
   3.1852660  24.9578550  18.9405210   4.3158640  25.1856580  19.9212000
   7.1801060  17.8350050  23.6502430   6.4756630  18.1234940  24.2305540
   7.5413220  18.6450160  23.2901990   8.7963840  27.4525180  25.9129910
   8.1127360  28.1224290  25.9046580   9.3358130  27.6505830  25.1474770
  10.2487980  17.2804840  24.0411640   9.3012890  17.3143820  24.1727070
  10.5737970  18.0943790  24.4261000   6.3322580  29.2969310  24.6275090
   6.3449740  28.8931600  23.7597350   5.7797800  30.0716600  24.5236520
   7.6268000  26.0185530  19.7165260   7.5164330  25.0759860  19.8414680
   7.6236250  26.3801170  20.6028020   5.7308020  24.1999150  25.9557700
   6.1476810  23.9859260  25.1211160   6.4547840  24.4571940  26.5266320
   3.1688280  21.6450850  19.0727750   2.2417560  21.5788230  19.3016220
   3.3213100  22.5830980  18.9582990   3.1557360  17.9167850  16.0694910
   2.2161030  18.0781810  16.1547370   3.4740620  18.6353530  15.5230900
   9.6770120  22.5986370  26.0473940   8.8488750  22.6679460  25.5724070
  10.2720600  23.1840680  25.5789770   7.1985570  23.2071150  19.5763000
   6.5797990  22.8690700  18.9289300   7.1810020  22.5630910  20.2842190
   6.6412130  19.3855690  26.9928810   6.2283310  20.2109400  27.2468800
   5.9088080  18.8000730  26.8005170   7.3312230  29.4315020  27.6809790
   6.8542790  30.2387210  27.4882400   6.6474020  28.7793350  27.8336000
   5.3750270  22.4457960  16.5835750   5.8143550  21.6080390  16.4373570
   6.0878690  23.0787360  16.6699890   3.4845650  27.3854030  20.5516990
   3.9241560  28.1278360  20.1372380   3.4232540  27.6280600  21.4755950
   8.9567410  13.7000770  14.8976790   8.6440070  13.7927600  15.7975860
   9.7179880  14.2781800  14.8474220  10.9111440  29.1926960  32.7501180
  11.3871160  29.6709850  33.4290260  11.5318600  29.1244450  32.0246680
  10.3144690  26.3839810  29.9101190  10.4407750  26.1451690  28.9918370
  10.3566070  25.5524350  30.3823270   4.1761430  30.0867810  28.4796000
   4.6906100  29.9975820  29.2818430   3.3330510  30.4327510  28.7723910
   6.1515830  30.3723150  17.9080000   5.9916970  30.0826090  18.8061830
   5.9862540  29.5963280  17.3725230   5.8541960  27.8810710  16.4678000
   5.1607120  27.8788000  15.8080280   6.5964820  27.4570030  16.0372170
   5.4191890  29.5073420  20.5426490   5.8748840  28.7262800  20.8565110
   5.7584410  30.2180240  21.0867670  10.1668700  18.4372270  30.8750930
   9.5512970  18.9451940  30.3466390   9.8465120  17.5370600  30.8176870
   2.2283020  17.2764160  28.3413120   1.7662390  17.4847180  29.1533060
   1.8261130  16.4623510  28.0383790   7.2287530  18.4973110  29.4709780
   6.3781120  18.1978860  29.7918850   7.0689320  18.7415120  28.5593600
   4.3237240  19.9974860  31.5708570   4.6490650  19.1638610  31.2310800
   5.1117570  20.5203380  31.7186900   4.9625190  19.5392580  19.0649700
   4.3634080  20.2628380  18.8813320   5.5104800  19.4769360  18.2826150
   3.5690060  18.1756120  21.0952980   3.9619630  18.4928320  20.2821670
   3.9306910  17.2968000  21.2097500   1.8782230  16.9263430  32.3549840
   1.1880550  16.7335630  32.9895930   2.6214530  17.2098070  32.8874140
   4.1545200  20.7661870  25.1903760   3.4226320  21.2748680  25.5393860
   3.7569540  19.9491850  24.8892540   4.6171110  16.2195550  24.6026700
   4.6343850  16.6704200  25.4468550   4.3686690  15.3201190  24.8160140
   8.0441860  13.6327730  30.4413080   8.3687630  12.9017390  30.9671060
   8.0798370  13.3141370  29.5394070   7.9699700  23.7452840  24.0499110
   8.6898820  24.2408130  23.6595220   7.7681520  23.0670730  23.4052980
   3.4309640  15.1390800  18.1928500   2.6174250  14.6403970  18.1173810
   3.2371590  15.9789050  17.7764850   3.3518500  23.8161900  29.9368110
   3.2855810  22.8957570  29.6825700   2.7223640  23.9137340  30.6512750
   6.1458030  19.5110450  16.4890660   7.0337650  19.8227680  16.3142000
   6.1163120  18.6382700  16.0971240   2.1418620  25.6834140  17.1678830
   2.4834320  26.4276370  16.6722150   1.3131330  25.9965260  17.5303660
   3.2835230  26.6382470  29.6871910   3.2979770  25.7063430  29.4690820
   2.5760330  26.7242230  30.3261680   8.4172300  20.8222290  15.9570520
   8.3336020  21.2536510  15.1066960   9.1366490  21.2820640  16.3897340
   9.4946440  23.2789810  29.0340490   8.7694630  23.8718590  28.8369880
  10.0221900  23.2713350  28.2353860   9.4459550  27.6764550  18.6852650
   8.8035710  27.0220170  18.9596370   9.0590210  28.0819640  17.9093320
   5.0246030  25.0049980  22.5324340   5.3769850  24.4078110  21.8725710
   4.1408360  24.6794210  22.7032590   2.7169130  28.2800040  26.7812410
   3.3611350  28.4859420  27.4585830   3.0798570  27.5188440  26.3283260
   3.9901210  26.2832390  25.4989860   4.6323440  25.5825550  25.6122030
   4.5150560  27.0630830  25.3186750   7.8356930  26.5681010  15.2229000
   7.6094510  25.8511450  15.8153640   7.4453130  26.3193450  14.3850750
   5.7638830  27.0827290  28.7025920   6.0995070  27.6693980  29.3803840
   4.8439170  26.9520000  28.9323710   7.4173180  24.4852950  16.8843160
   7.1294880  24.9465640  17.6721040   8.2125350  24.0250720  17.1527380
   4.8081010  17.3644780  27.2350780   5.1761830  16.5439990  27.5630350
   3.9479210  17.4246670  27.6506430   8.1743040  16.3201720  18.0438340
   7.5456200  16.4247390  17.3296570   7.6794960  16.5398500  18.8332220
   2.6201180  28.0407310  15.4772320   2.7213160  27.8371300  14.5474300
   1.7202920  27.7865590  15.6820100   1.7683000  20.0184370  27.4588750
   2.2668250  20.4930190  28.1240600   1.9105950  19.0947890  27.6658780
   4.1742500  15.3238330  20.8992010   4.0510280  15.3424460  19.9501520
   5.1227060  15.3717270  21.0190410   8.9749860  16.2352330  28.3017140
   8.4723460  16.9757730  28.6410950   9.7906520  16.6236330  27.9853930
   7.2671870  21.4785510  21.7478500   6.3262010  21.4935740  21.9226190
   7.5815940  20.6921470  22.1938800   9.2697450  28.6494360  23.4232760
   9.3944870  29.4725530  23.8956570  10.1363010  28.4385090  23.0756910
   4.5837890  26.0351510  32.2310880   3.9776050  26.0583110  31.4906630
   4.2792000  25.3034550  32.7678130   6.0138260  29.7631800  30.8420290
   6.9660010  29.6789820  30.7920530   5.8666480  30.4273510  31.5154080
   8.9047460  29.1426010  16.3412200   8.6188970  28.7291150  15.5266380
   8.7067010  30.0713720  16.2212720   3.6097420  24.1979320  15.3859800
   3.0607520  24.6448620  16.0302540   4.2316680  23.6928570  15.9097470
   7.6632360  25.5521420  31.3182060   8.4041830  25.8897180  30.8149520
   6.9005040  25.7213480  30.7651830   1.7900180  22.1807850  14.5302200
   2.3105840  21.4656870  14.1643350   2.4368580  22.8193720  14.8302710
   6.3378020  23.6036250  29.8537270   6.7519040  23.7581330  30.7027690
   5.4029020  23.7291470  30.0163050   6.8100190  20.9432410  31.8576420
   7.3920960  20.1884730  31.7696900   6.9861960  21.4739850  31.0807900
   3.4357150  21.2872910  29.2071040   3.5553360  20.6914050  29.9465880
   4.2951150  21.3242600  28.7872340   5.7745050  21.8410100  27.7833550
   5.2480270  22.3652720  27.1798690   6.1176390  22.4737490  28.4143280
   5.0219350  17.4460070  30.6979880   4.3334870  16.7841610  30.6329870
   5.7425370  16.9998340  31.1428340   5.6519750  14.0411700  16.7570140
   5.9322040  13.1979600  17.1129560   4.8785480  14.2734810  17.2708890
   2.3548210  30.2619460  16.8203940   3.2499000  30.6004430  16.8422700
   2.3865840  29.5398870  16.1928220   9.3342560  28.7923130  29.5270140
   8.7344550  28.8515690  28.7834060   9.4636460  27.8528110  29.6566990
  10.5744010  26.5340950  14.8639850   9.7436970  26.6017600  15.3347080
  10.7515840  27.4245070  14.5606710  10.0300470  23.2788430  17.3674050
  10.7919380  23.8485080  17.4733740  10.0454840  22.7115630  18.1382360
  11.0360440  24.1338530  22.2115980  11.4069270  23.3505850  21.8051950
  11.6762370  24.8227630  22.0333280   8.0194200  25.5175110  27.6246300
   7.2054040  25.9472270  27.8872090   8.4268400  26.1293520  27.0115350
  10.0819640  23.5722800  14.5246570  10.3568480  24.4801680  14.3965790
   9.8930380  23.5085330  15.4608560   6.4795250  16.5967650  15.8200200
   6.8980130  16.4098630  14.9796860   6.1731310  15.7446700  16.1303130
   9.9784980  21.5091790  19.5176000   9.6028580  20.7419720  19.0857290
   9.2488100  21.8914490  20.0050930   9.3684600  20.6563310  29.1515520
   9.1370690  20.4276060  28.2513470   9.6289150  21.5762860  29.1060410
   7.8072670  15.8819740  31.9295220   8.6842850  15.8903140  32.3129220
   7.8193510  15.1450580  31.3187570   9.2535940  19.7349280  22.8183240
   9.7773420  19.2411930  22.1873410   9.8395360  19.8699640  23.5630810
   9.4325660  19.8189150  26.3402790   8.4828370  19.7852690  26.4547780
   9.6138670  20.7289260  26.1052560   8.7435910  18.9922630  18.7575650
   9.2395030  18.7593500  19.5424530   8.5451980  18.1534470  18.3413290
  10.1723070  17.6283580  21.2913330  10.0622350  17.4739620  22.2295600
  10.9330660  17.1004520  21.0488740   8.5188790  13.5677710  27.7496330
   9.1561010  14.1811850  28.1155520   8.6663680  13.6038370  26.8045560
  11.0613340  15.4591500  14.5319470  11.9862650  15.3272680  14.3237760
  11.0389130  15.5384320  15.4855920  11.1351830  16.2302160  17.1576180
  10.3403330  16.1647280  17.6869090  11.3395110  17.1652800  17.1461530
   8.0770250  30.2693710  21.1514570   8.6729320  29.9478280  20.4748990
   8.3348400  29.7965530  21.9427840   1.8893270  14.7203900  30.6571430
   1.8282160  15.3125730  31.4066840   2.8293650  14.6129860  30.5121690
   4.5267830  14.3773960  30.2963720   5.1408240  14.6953250  29.6344800
   5.0717390  13.8922550  30.9159580  10.9443010  30.2765590  27.7025560
  10.4501290  30.6734460  26.9852690  10.3356300  29.6514800  28.0962840
   5.2675870  12.9406100  26.6233010   4.3935710  13.2741210  26.4205940
   5.1586620  12.4679280  27.4484880   6.1747850  15.1476970  28.0074730
   5.8461210  14.3328730  27.6276460   7.1230150  15.1046780  27.8840420
   8.6282460  30.9189010  24.9812300   8.1685430  31.6704820  24.6070320
   7.9994920  30.1995480  24.9227100   1.7973680  30.1185740  24.9829410
   2.0851490  29.8640040  24.1062420   2.3096900  29.5663100  25.5734980
   3.0150690  13.8575940  25.5625920   2.2322480  14.3321440  25.8422680
   2.7213620  12.9530770  25.4539100   7.5671760  14.5599040  23.6075010
   8.0079850  14.5044140  22.7596610   7.2979350  15.4757050  23.6785190
   9.4310330  14.1914280  21.6183830   9.3698730  13.2475500  21.4714850
  10.2102360  14.2994370  22.1637290   5.4029890  12.9405140  22.3125020
   6.0059260  13.5125350  22.7873540   4.6622880  13.5044580  22.0898920
   8.5464490  13.3426700  17.5865300   8.7415120  14.2410150  17.8532730
   7.7594360  13.1113780  18.0798250   1.8646040  31.0401840  32.3497610
   2.7913350  30.8046110  32.3933570   1.8496470  31.8673840  31.8683640
  10.0991100  30.5827410  19.3471860  10.2743290  29.8965150  18.7032780
   9.4012670  31.1074460  18.9548530   5.6525110  13.1200170  32.6919960
   5.5390560  13.4394780  33.5871480   6.4694850  13.5212680  32.3957240
   8.4323600  30.2671700  32.1738650   9.2248920  29.7720930  31.9664610
   8.7256750  30.9461840  32.7814260   4.5583260  21.1392640   3.0554700
   4.4777310  20.2247250   2.7846410   4.1447680  21.6359710   2.3494410
   2.6901300  22.9171660   4.9363970   1.9143400  22.4372100   5.2262540
   3.3414230  22.2377310   4.7620130   6.7108730  27.3231850   3.7163100
   6.2490260  26.5519090   4.0450270   7.5234280  27.3497920   4.2215550
   2.9372040  29.6089860   3.3367090   2.3183480  30.0647360   2.7661530
   3.7923820  29.7641320   2.9356790   2.1310290  25.5928850   4.9434130
   2.0618570  24.6518790   4.7823260   2.8930150  25.6830260   5.5156700
   3.1615460  18.3999230   5.1703060   3.5380280  17.5271110   5.0576730
   3.0634970  18.7357930   4.2793500   6.9439580  15.8949670   2.1031400
   7.7649200  15.4046240   2.1456880   6.9773660  16.4847330   2.8563240
  11.2339130  17.9116420   8.6675030  10.5291300  18.2998130   8.1490140
  11.4997050  18.6066710   9.2695960   7.1801060  17.8350050   4.8758940
   6.4756630  18.1234940   5.4562050   7.5413220  18.6450160   4.5158500
   8.7963840  27.4525180   7.1386420   8.1127360  28.1224290   7.1303090
   9.3358130  27.6505830   6.3731280  10.2487980  17.2804840   5.2668150
   9.3012890  17.3143820   5.3983580  10.5737970  18.0943790   5.6517510
   6.3322580  29.2969310   5.8531600   6.3449740  28.8931600   4.9853860
   5.7797800  30.0716600   5.7493030   5.7308020  24.1999150   7.1814210
   6.1476810  23.9859260   6.3467670   6.4547840  24.4571940   7.7522830
   9.6770120  22.5986370   7.2730450   8.8488750  22.6679460   6.7980580
  10.2720600  23.1840680   6.8046280   6.6412130  19.3855690   8.2185320
   6.2283310  20.2109400   8.4725310   5.9088080  18.8000730   8.0261680
   7.3312230  29.4315020   8.9066300   6.8542790  30.2387210   8.7138910
   6.6474020  28.7793350   9.0592510  10.9111440  29.1926960  13.9757690
  11.3871160  29.6709850  14.6546770  11.5318600  29.1244450  13.2503190
  10.3144690  26.3839810  11.1357700  10.4407750  26.1451690  10.2174880
  10.3566070  25.5524350  11.6079780   4.1761430  30.0867810   9.7052510
   4.6906100  29.9975820  10.5074940   3.3330510  30.4327510   9.9980420
   5.4191890  29.5073420   1.7683000   5.8748840  28.7262800   2.0821620
   5.7584410  30.2180240   2.3124180  10.1668700  18.4372270  12.1007440
   9.5512970  18.9451940  11.5722900   9.8465120  17.5370600  12.0433380
   2.2283020  17.2764160   9.5669630   1.7662390  17.4847180  10.3789570
   1.8261130  16.4623510   9.2640300   7.2287530  18.4973110  10.6966290
   6.3781120  18.1978860  11.0175360   7.0689320  18.7415120   9.7850110
   4.3237240  19.9974860  12.7965080   4.6490650  19.1638610  12.4567310
   5.1117570  20.5203380  12.9443410   1.8782230  16.9263430  13.5806350
   1.1880550  16.7335630  14.2152440   2.6214530  17.2098070  14.1130650
   4.1545200  20.7661870   6.4160270   3.4226320  21.2748680   6.7650370
   3.7569540  19.9491850   6.1149050   4.6171110  16.2195550   5.8283210
   4.6343850  16.6704200   6.6725060   4.3686690  15.3201190   6.0416650
   8.0441860  13.6327730  11.6669590   8.3687630  12.9017390  12.1927570
   8.0798370  13.3141370  10.7650580   7.9699700  23.7452840   5.2755620
   8.6898820  24.2408130   4.8851730   7.7681520  23.0670730   4.6309490
   3.3518500  23.8161900  11.1624620   3.2855810  22.8957570  10.9082210
   2.7223640  23.9137340  11.8769260   3.2835230  26.6382470  10.9128420
   3.2979770  25.7063430  10.6947330   2.5760330  26.7242230  11.5518190
   9.4946440  23.2789810  10.2597000   8.7694630  23.8718590  10.0626390
  10.0221900  23.2713350   9.4610370   5.0246030  25.0049980   3.7580850
   5.3769850  24.4078110   3.0982220   4.1408360  24.6794210   3.9289100
   2.7169130  28.2800040   8.0068920   3.3611350  28.4859420   8.6842340
   3.0798570  27.5188440   7.5539770   3.9901210  26.2832390   6.7246370
   4.6323440  25.5825550   6.8378540   4.5150560  27.0630830   6.5443260
   5.7638830  27.0827290   9.9282430   6.0995070  27.6693980  10.6060350
   4.8439170  26.9520000  10.1580220   4.8081010  17.3644780   8.4607290
   5.1761830  16.5439990   8.7886860   3.9479210  17.4246670   8.8762940
   1.7683000  20.0184370   8.6845260   2.2668250  20.4930190   9.3497110
   1.9105950  19.0947890   8.8915290   8.9749860  16.2352330   9.5273650
   8.4723460  16.9757730   9.8667460   9.7906520  16.6236330   9.2110440
   7.2671870  21.4785510   2.9735010   6.3262010  21.4935740   3.1482700
   7.5815940  20.6921470   3.4195310   9.2697450  28.6494360   4.6489270
   9.3944870  29.4725530   5.1213080  10.1363010  28.4385090   4.3013420
   4.5837890  26.0351510  13.4567390   3.9776050  26.0583110  12.7163140
   4.2792000  25.3034550  13.9934640   6.0138260  29.7631800  12.0676800
   6.9660010  29.6789820  12.0177040   5.8666480  30.4273510  12.7410590
   7.6632360  25.5521420  12.5438570   8.4041830  25.8897180  12.0406030
   6.9005040  25.7213480  11.9908340   6.3378020  23.6036250  11.0793780
   6.7519040  23.7581330  11.9284200   5.4029020  23.7291470  11.2419560
   6.8100190  20.9432410  13.0832930   7.3920960  20.1884730  12.9953410
   6.9861960  21.4739850  12.3064410   3.4357150  21.2872910  10.4327550
   3.5553360  20.6914050  11.1722390   4.2951150  21.3242600  10.0128850
   5.7745050  21.8410100   9.0090060   5.2480270  22.3652720   8.4055200
   6.1176390  22.4737490   9.6399790   5.0219350  17.4460070  11.9236390
   4.3334870  16.7841610  11.8586380   5.7425370  16.9998340  12.3684850
   9.3342560  28.7923130  10.7526650   8.7344550  28.8515690  10.0090570
   9.4636460  27.8528110  10.8823500  11.0360440  24.1338530   3.4372490
  11.4069270  23.3505850   3.0308460  11.6762370  24.8227630   3.2589790
   8.0194200  25.5175110   8.8502810   7.2054040  25.9472270   9.1128600
   8.4268400  26.1293520   8.2371860   9.3684600  20.6563310  10.3772030
   9.1370690  20.4276060   9.4769980   9.6289150  21.5762860  10.3316920
   7.8072670  15.8819740  13.1551730   8.6842850  15.8903140  13.5385730
   7.8193510  15.1450580  12.5444080   9.2535940  19.7349280   4.0439750
   9.7773420  19.2411930   3.4129920   9.8395360  19.8699640   4.7887320
   9.4325660  19.8189150   7.5659300   8.4828370  19.7852690   7.6804290
   9.6138670  20.7289260   7.3309070  10.1723070  17.6283580   2.5169840
  10.0622350  17.4739620   3.4552110  10.9330660  17.1004520   2.2745250
   8.5188790  13.5677710   8.9752840   9.1561010  14.1811850   9.3412030
   8.6663680  13.6038370   8.0302070   8.0770250  30.2693710   2.3771080
   8.6729320  29.9478280   1.7005500   8.3348400  29.7965530   3.1684350
   1.8893270  14.7203900  11.8827940   1.8282160  15.3125730  12.6323350
   2.8293650  14.6129860  11.7378200   4.5267830  14.3773960  11.5220230
   5.1408240  14.6953250  10.8601310   5.0717390  13.8922550  12.1416090
  10.9443010  30.2765590   8.9282070  10.4501290  30.6734460   8.2109200
  10.3356300  29.6514800   9.3219350   5.2675870  12.9406100   7.8489520
   4.3935710  13.2741210   7.6462450   5.1586620  12.4679280   8.6741390
   6.1747850  15.1476970   9.2331240   5.8461210  14.3328730   8.8532970
   7.1230150  15.1046780   9.1096930   8.6282460  30.9189010   6.2068810
   8.1685430  31.6704820   5.8326830   7.9994920  30.1995480   6.1483610
   1.7973680  30.1185740   6.2085920   2.0851490  29.8640040   5.3318930
   2.3096900  29.5663100   6.7991490   3.0150690  13.8575940   6.7882430
   2.2322480  14.3321440   7.0679190   2.7213620  12.9530770   6.6795610
   7.5671760  14.5599040   4.8331520   8.0079850  14.5044140   3.9853120
   7.2979350  15.4757050   4.9041700   9.4310330  14.1914280   2.8440340
   9.3698730  13.2475500   2.6971360  10.2102360  14.2994370   3.3893800
   5.4029890  12.9405140   3.5381530   6.0059260  13.5125350   4.0130050
   4.6622880  13.5044580   3.3155430   1.8646040  31.0401840  13.5754120
   2.7913350  30.8046110  13.6190080   1.8496470  31.8673840  13.0940150
   5.6525110  13.1200170  13.9176470   5.5390560  13.4394780  14.8127990
   6.4694850  13.5212680  13.6213750   8.4323600  30.2671700  13.3995160
   9.2248920  29.7720930  13.1921120   8.7256750  30.9461840  14.0070770
   4.5583260   2.3649150  96.9272150   4.4777310   1.4503760  96.6563860
   4.1447680   2.8616220  96.2211860   2.6901300   4.1428170  98.8081420
   1.9143400   3.6628610  99.0979990   3.3414230   3.4633820  98.6337580
   6.7108730   8.5488360  97.5880550   6.2490260   7.7775600  97.9167720
   7.5234280   8.5754430  98.0933000   2.9372040  10.8346370  97.2084540
   2.3183480  11.2903870  96.6378980   3.7923820  10.9897830  96.8074240
   2.1310290   6.8185360  98.8151580   2.0618570   5.8775300  98.6540710
   2.8930150   6.9086770  99.3874150   3.8035390   5.7185610  94.6016450
   3.1852660   6.1835060  94.0379170   4.3158640   6.4113090  95.0185960
   8.7963840   8.6781690 101.0103870   8.1127360   9.3480800 101.0020540
   9.3358130   8.8762340 100.2448730   6.3322580  10.5225820  99.7249050
   6.3449740  10.1188110  98.8571310   5.7797800  11.2973110  99.6210480
   7.6268000   7.2442040  94.8139220   7.5164330   6.3016370  94.9388640
   7.6236250   7.6057680  95.7001980   5.7308020   5.4255660 101.0531660
   6.1476810   5.2115770 100.2185120   6.4547840   5.6828450 101.6240280
   3.1688280   2.8707360  94.1701710   2.2417560   2.8044740  94.3990180
   3.3213100   3.8087490  94.0556950   9.6770120   3.8242880 101.1447900
   8.8488750   3.8935970 100.6698030  10.2720600   4.4097190 100.6763730
   7.1985570   4.4327660  94.6736960   6.5797990   4.0947210  94.0263260
   7.1810020   3.7887420  95.3816150   5.3750270   3.6714470  91.6809710
   5.8143550   2.8336900  91.5347530   6.0878690   4.3043870  91.7673850
   3.4845650   8.6110540  95.6490950   3.9241560   9.3534870  95.2346340
   3.4232540   8.8537110  96.5729910   6.1515830  11.5979660  93.0053960
   5.9916970  11.3082600  93.9035790   5.9862540  10.8219790  92.4699190
   5.8541960   9.1067220  91.5651960   5.1607120   9.1044510  90.9054240
   6.5964820   8.6826540  91.1346130   5.4191890  10.7329930  95.6400450
   5.8748840   9.9519310  95.9539070   5.7584410  11.4436750  96.1841630
   4.1545200   1.9918380 100.2877720   3.4226320   2.5005190 100.6367820
   3.7569540   1.1748360  99.9866500   7.9699700   4.9709350  99.1473070
   8.6898820   5.4664640  98.7569180   7.7681520   4.2927240  98.5026940
   2.1418620   6.9090650  92.2652790   2.4834320   7.6532880  91.7696110
   1.3131330   7.2221770  92.6277620   8.4172300   2.0478800  91.0544480
   8.3336020   2.4793020  90.2040920   9.1366490   2.5077150  91.4871300
   9.4459550   8.9021060  93.7826610   8.8035710   8.2476680  94.0570330
   9.0590210   9.3076150  93.0067280   5.0246030   6.2306490  97.6298300
   5.3769850   5.6334620  96.9699670   4.1408360   5.9050720  97.8006550
   3.9901210   7.5088900 100.5963820   4.6323440   6.8082060 100.7095990
   4.5150560   8.2887340 100.4160710   7.8356930   7.7937520  90.3202960
   7.6094510   7.0767960  90.9127600   7.4453130   7.5449960  89.4824710
   7.4173180   5.7109460  91.9817120   7.1294880   6.1722150  92.7695000
   8.2125350   5.2507230  92.2501340   2.6201180   9.2663820  90.5746280
   2.7213160   9.0627810  89.6448260   1.7202920   9.0122100  90.7794060
   7.2671870   2.7042020  96.8452460   6.3262010   2.7192250  97.0200150
   7.5815940   1.9177980  97.2912760   9.2697450   9.8750870  98.5206720
   9.3944870  10.6982040  98.9930530  10.1363010   9.6641600  98.1730870
   8.9047460  10.3682520  91.4386160   8.6188970   9.9547660  90.6240340
   8.7067010  11.2970230  91.3186680   3.6097420   5.4235830  90.4833760
   3.0607520   5.8705130  91.1276500   4.2316680   4.9185080  91.0071430
   1.7900180   3.4064360  89.6276160   2.3105840   2.6913380  89.2617310
   2.4368580   4.0450230  89.9276670   2.3548210  11.4875970  91.9177900
   3.2499000  11.8260940  91.9396660   2.3865840  10.7655380  91.2902180
  10.5744010   7.7597460  89.9613810   9.7436970   7.8274110  90.4321040
  10.7515840   8.6501580  89.6580670  10.0300470   4.5044940  92.4648010
  10.7919380   5.0741590  92.5707700  10.0454840   3.9372140  93.2356320
  11.0360440   5.3595040  97.3089940  11.4069270   4.5762360  96.9025910
  11.6762370   6.0484140  97.1307240  10.0819640   4.7979310  89.6220530
  10.3568480   5.7058190  89.4939750   9.8930380   4.7341840  90.5582520
   9.9784980   2.7348300  94.6149960   9.6028580   1.9676230  94.1831250
   9.2488100   3.1171000  95.1024890   8.0770250  11.4950220  96.2488530
   8.6729320  11.1734790  95.5722950   8.3348400  11.0222040  97.0401800
   8.6282460  12.1445520 100.0786260   8.1685430  12.8961330  99.7044280
   7.9994920  11.4251990 100.0201060   1.7973680  11.3442250 100.0803370
   2.0851490  11.0896550  99.2036380   2.3096900  10.7919610 100.6708940
  10.0991100  11.8083920  94.4445820  10.2743290  11.1221660  93.8006740
   9.4012670  12.3330970  94.0522490   4.5583260   2.3649150  78.1528660
   4.4777310   1.4503760  77.8820370   4.1447680   2.8616220  77.4468370
   2.6901300   4.1428170  80.0337930   1.9143400   3.6628610  80.3236500
   3.3414230   3.4633820  79.8594090   6.7108730   8.5488360  78.8137060
   6.2490260   7.7775600  79.1424230   7.5234280   8.5754430  79.3189510
   2.9372040  10.8346370  78.4341050   2.3183480  11.2903870  77.8635490
   3.7923820  10.9897830  78.0330750   2.1310290   6.8185360  80.0408090
   2.0618570   5.8775300  79.8797220   2.8930150   6.9086770  80.6130660
   3.8035390   5.7185610  75.8272960   3.1852660   6.1835060  75.2635680
   4.3158640   6.4113090  76.2442470   8.7963840   8.6781690  82.2360380
   8.1127360   9.3480800  82.2277050   9.3358130   8.8762340  81.4705240
   6.3322580  10.5225820  80.9505560   6.3449740  10.1188110  80.0827820
   5.7797800  11.2973110  80.8466990   7.6268000   7.2442040  76.0395730
   7.5164330   6.3016370  76.1645150   7.6236250   7.6057680  76.9258490
   5.7308020   5.4255660  82.2788170   6.1476810   5.2115770  81.4441630
   6.4547840   5.6828450  82.8496790   3.1688280   2.8707360  75.3958220
   2.2417560   2.8044740  75.6246690   3.3213100   3.8087490  75.2813460
   9.6770120   3.8242880  82.3704410   8.8488750   3.8935970  81.8954540
  10.2720600   4.4097190  81.9020240   7.1985570   4.4327660  75.8993470
   6.5797990   4.0947210  75.2519770   7.1810020   3.7887420  76.6072660
   7.3312230  10.6571530  84.0040260   6.8542790  11.4643720  83.8112870
   6.6474020  10.0049860  84.1566470   5.3750270   3.6714470  72.9066220
   5.8143550   2.8336900  72.7604040   6.0878690   4.3043870  72.9930360
   3.4845650   8.6110540  76.8747460   3.9241560   9.3534870  76.4602850
   3.4232540   8.8537110  77.7986420  10.9111440  10.4183470  89.0731650
  11.3871160  10.8966360  89.7520730  11.5318600  10.3500960  88.3477150
  10.3144690   7.6096320  86.2331660  10.4407750   7.3708200  85.3148840
  10.3566070   6.7780860  86.7053740   4.1761430  11.3124320  84.8026470
   4.6906100  11.2232330  85.6048900   3.3330510  11.6584020  85.0954380
   6.1515830  11.5979660  74.2310470   5.9916970  11.3082600  75.1292300
   5.9862540  10.8219790  73.6955700   5.8541960   9.1067220  72.7908470
   5.1607120   9.1044510  72.1310750   6.5964820   8.6826540  72.3602640
   5.4191890  10.7329930  76.8656960   5.8748840   9.9519310  77.1795580
   5.7584410  11.4436750  77.4098140   4.1545200   1.9918380  81.5134230
   3.4226320   2.5005190  81.8624330   3.7569540   1.1748360  81.2123010
   7.9699700   4.9709350  80.3729580   8.6898820   5.4664640  79.9825690
   7.7681520   4.2927240  79.7283450   3.3518500   5.0418410  86.2598580
   3.2855810   4.1214080  86.0056170   2.7223640   5.1393850  86.9743220
   2.1418620   6.9090650  73.4909300   2.4834320   7.6532880  72.9952620
   1.3131330   7.2221770  73.8534130   3.2835230   7.8638980  86.0102380
   3.2979770   6.9319940  85.7921290   2.5760330   7.9498740  86.6492150
   8.4172300   2.0478800  72.2800990   8.3336020   2.4793020  71.4297430
   9.1366490   2.5077150  72.7127810   9.4946440   4.5046320  85.3570960
   8.7694630   5.0975100  85.1600350  10.0221900   4.4969860  84.5584330
   9.4459550   8.9021060  75.0083120   8.8035710   8.2476680  75.2826840
   9.0590210   9.3076150  74.2323790   5.0246030   6.2306490  78.8554810
   5.3769850   5.6334620  78.1956180   4.1408360   5.9050720  79.0263060
   2.7169130   9.5056550  83.1042880   3.3611350   9.7115930  83.7816300
   3.0798570   8.7444950  82.6513730   3.9901210   7.5088900  81.8220330
   4.6323440   6.8082060  81.9352500   4.5150560   8.2887340  81.6417220
   7.8356930   7.7937520  71.5459470   7.6094510   7.0767960  72.1384110
   7.4453130   7.5449960  70.7081220   5.7638830   8.3083800  85.0256390
   6.0995070   8.8950490  85.7034310   4.8439170   8.1776510  85.2554180
   7.4173180   5.7109460  73.2073630   7.1294880   6.1722150  73.9951510
   8.2125350   5.2507230  73.4757850   2.6201180   9.2663820  71.8002790
   2.7213160   9.0627810  70.8704770   1.7202920   9.0122100  72.0050570
   7.2671870   2.7042020  78.0708970   6.3262010   2.7192250  78.2456660
   7.5815940   1.9177980  78.5169270   9.2697450   9.8750870  79.7463230
   9.3944870  10.6982040  80.2187040  10.1363010   9.6641600  79.3987380
   4.5837890   7.2608020  88.5541350   3.9776050   7.2839620  87.8137100
   4.2792000   6.5291060  89.0908600   6.0138260  10.9888310  87.1650760
   6.9660010  10.9046330  87.1151000   5.8666480  11.6530020  87.8384550
   8.9047460  10.3682520  72.6642670   8.6188970   9.9547660  71.8496850
   8.7067010  11.2970230  72.5443190   3.6097420   5.4235830  71.7090270
   3.0607520   5.8705130  72.3533010   4.2316680   4.9185080  72.2327940
   7.6632360   6.7777930  87.6412530   8.4041830   7.1153690  87.1379990
   6.9005040   6.9469990  87.0882300   1.7900180   3.4064360  70.8532670
   2.3105840   2.6913380  70.4873820   2.4368580   4.0450230  71.1533180
   6.3378020   4.8292760  86.1767740   6.7519040   4.9837840  87.0258160
   5.4029020   4.9547980  86.3393520   6.8100190   2.1688920  88.1806890
   7.3920960   1.4141240  88.0927370   6.9861960   2.6996360  87.4038370
   3.4357150   2.5129420  85.5301510   3.5553360   1.9170560  86.2696350
   4.2951150   2.5499110  85.1102810   5.7745050   3.0666610  84.1064020
   5.2480270   3.5909230  83.5029160   6.1176390   3.6994000  84.7373750
   2.3548210  11.4875970  73.1434410   3.2499000  11.8260940  73.1653170
   2.3865840  10.7655380  72.5158690   9.3342560  10.0179640  85.8500610
   8.7344550  10.0772200  85.1064530   9.4636460   9.0784620  85.9797460
  10.5744010   7.7597460  71.1870320   9.7436970   7.8274110  71.6577550
  10.7515840   8.6501580  70.8837180  10.0300470   4.5044940  73.6904520
  10.7919380   5.0741590  73.7964210  10.0454840   3.9372140  74.4612830
  11.0360440   5.3595040  78.5346450  11.4069270   4.5762360  78.1282420
  11.6762370   6.0484140  78.3563750   8.0194200   6.7431620  83.9476770
   7.2054040   7.1728780  84.2102560   8.4268400   7.3550030  83.3345820
  10.0819640   4.7979310  70.8477040  10.3568480   5.7058190  70.7196260
   9.8930380   4.7341840  71.7839030   9.9784980   2.7348300  75.8406470
   9.6028580   1.9676230  75.4087760   9.2488100   3.1171000  76.3281400
   9.3684600   1.8819820  85.4745990   9.1370690   1.6532570  84.5743940
   9.6289150   2.8019370  85.4290880   8.0770250  11.4950220  77.4745040
   8.6729320  11.1734790  76.7979460   8.3348400  11.0222040  78.2658310
  10.9443010  11.5022100  84.0256030  10.4501290  11.8990970  83.3083160
  10.3356300  10.8771310  84.4193310   8.6282460  12.1445520  81.3042770
   8.1685430  12.8961330  80.9300790   7.9994920  11.4251990  81.2457570
   1.7973680  11.3442250  81.3059880   2.0851490  11.0896550  80.4292890
   2.3096900  10.7919610  81.8965450   1.8646040  12.2658350  88.6728080
   2.7913350  12.0302620  88.7164040   1.8496470  13.0930350  88.1914110
  10.0991100  11.8083920  75.6702330  10.2743290  11.1221660  75.0263250
   9.4012670  12.3330970  75.2779000   8.4323600  11.4928210  88.4969120
   9.2248920  10.9977440  88.2895080   8.7256750  12.1718350  89.1044730
   4.5583260   2.3649150  59.3785170   4.4777310   1.4503760  59.1076880
   4.1447680   2.8616220  58.6724880   2.6901300   4.1428170  61.2594440
   1.9143400   3.6628610  61.5493010   3.3414230   3.4633820  61.0850600
   6.7108730   8.5488360  60.0393570   6.2490260   7.7775600  60.3680740
   7.5234280   8.5754430  60.5446020   2.9372040  10.8346370  59.6597560
   2.3183480  11.2903870  59.0892000   3.7923820  10.9897830  59.2587260
   2.1310290   6.8185360  61.2664600   2.0618570   5.8775300  61.1053730
   2.8930150   6.9086770  61.8387170   3.8035390   5.7185610  57.0529470
   3.1852660   6.1835060  56.4892190   4.3158640   6.4113090  57.4698980
   8.7963840   8.6781690  63.4616890   8.1127360   9.3480800  63.4533560
   9.3358130   8.8762340  62.6961750   6.3322580  10.5225820  62.1762070
   6.3449740  10.1188110  61.3084330   5.7797800  11.2973110  62.0723500
   7.6268000   7.2442040  57.2652240   7.5164330   6.3016370  57.3901660
   7.6236250   7.6057680  58.1515000   5.7308020   5.4255660  63.5044680
   6.1476810   5.2115770  62.6698140   6.4547840   5.6828450  64.0753300
   3.1688280   2.8707360  56.6214730   2.2417560   2.8044740  56.8503200
   3.3213100   3.8087490  56.5069970   9.6770120   3.8242880  63.5960920
   8.8488750   3.8935970  63.1211050  10.2720600   4.4097190  63.1276750
   7.1985570   4.4327660  57.1249980   6.5797990   4.0947210  56.4776280
   7.1810020   3.7887420  57.8329170   7.3312230  10.6571530  65.2296770
   6.8542790  11.4643720  65.0369380   6.6474020  10.0049860  65.3822980
   5.3750270   3.6714470  54.1322730   5.8143550   2.8336900  53.9860550
   6.0878690   4.3043870  54.2186870   3.4845650   8.6110540  58.1003970
   3.9241560   9.3534870  57.6859360   3.4232540   8.8537110  59.0242930
  10.9111440  10.4183470  70.2988160  11.3871160  10.8966360  70.9777240
  11.5318600  10.3500960  69.5733660  10.3144690   7.6096320  67.4588170
  10.4407750   7.3708200  66.5405350  10.3566070   6.7780860  67.9310250
   4.1761430  11.3124320  66.0282980   4.6906100  11.2232330  66.8305410
   3.3330510  11.6584020  66.3210890   6.1515830  11.5979660  55.4566980
   5.9916970  11.3082600  56.3548810   5.9862540  10.8219790  54.9212210
   5.8541960   9.1067220  54.0164980   5.1607120   9.1044510  53.3567260
   6.5964820   8.6826540  53.5859150   5.4191890  10.7329930  58.0913470
   5.8748840   9.9519310  58.4052090   5.7584410  11.4436750  58.6354650
   4.1545200   1.9918380  62.7390740   3.4226320   2.5005190  63.0880840
   3.7569540   1.1748360  62.4379520   7.9699700   4.9709350  61.5986090
   8.6898820   5.4664640  61.2082200   7.7681520   4.2927240  60.9539960
   3.3518500   5.0418410  67.4855090   3.2855810   4.1214080  67.2312680
   2.7223640   5.1393850  68.1999730   2.1418620   6.9090650  54.7165810
   2.4834320   7.6532880  54.2209130   1.3131330   7.2221770  55.0790640
   3.2835230   7.8638980  67.2358890   3.2979770   6.9319940  67.0177800
   2.5760330   7.9498740  67.8748660   8.4172300   2.0478800  53.5057500
   8.3336020   2.4793020  52.6553940   9.1366490   2.5077150  53.9384320
   9.4946440   4.5046320  66.5827470   8.7694630   5.0975100  66.3856860
  10.0221900   4.4969860  65.7840840   9.4459550   8.9021060  56.2339630
   8.8035710   8.2476680  56.5083350   9.0590210   9.3076150  55.4580300
   5.0246030   6.2306490  60.0811320   5.3769850   5.6334620  59.4212690
   4.1408360   5.9050720  60.2519570   2.7169130   9.5056550  64.3299390
   3.3611350   9.7115930  65.0072810   3.0798570   8.7444950  63.8770240
   3.9901210   7.5088900  63.0476840   4.6323440   6.8082060  63.1609010
   4.5150560   8.2887340  62.8673730   7.8356930   7.7937520  52.7715980
   7.6094510   7.0767960  53.3640620   7.4453130   7.5449960  51.9337730
   5.7638830   8.3083800  66.2512900   6.0995070   8.8950490  66.9290820
   4.8439170   8.1776510  66.4810690   7.4173180   5.7109460  54.4330140
   7.1294880   6.1722150  55.2208020   8.2125350   5.2507230  54.7014360
   2.6201180   9.2663820  53.0259300   2.7213160   9.0627810  52.0961280
   1.7202920   9.0122100  53.2307080   7.2671870   2.7042020  59.2965480
   6.3262010   2.7192250  59.4713170   7.5815940   1.9177980  59.7425780
   9.2697450   9.8750870  60.9719740   9.3944870  10.6982040  61.4443550
  10.1363010   9.6641600  60.6243890   4.5837890   7.2608020  69.7797860
   3.9776050   7.2839620  69.0393610   4.2792000   6.5291060  70.3165110
   6.0138260  10.9888310  68.3907270   6.9660010  10.9046330  68.3407510
   5.8666480  11.6530020  69.0641060   8.9047460  10.3682520  53.8899180
   8.6188970   9.9547660  53.0753360   8.7067010  11.2970230  53.7699700
   3.6097420   5.4235830  52.9346780   3.0607520   5.8705130  53.5789520
   4.2316680   4.9185080  53.4584450   7.6632360   6.7777930  68.8669040
   8.4041830   7.1153690  68.3636500   6.9005040   6.9469990  68.3138810
   1.7900180   3.4064360  52.0789180   2.3105840   2.6913380  51.7130330
   2.4368580   4.0450230  52.3789690   6.3378020   4.8292760  67.4024250
   6.7519040   4.9837840  68.2514670   5.4029020   4.9547980  67.5650030
   6.8100190   2.1688920  69.4063400   7.3920960   1.4141240  69.3183880
   6.9861960   2.6996360  68.6294880   3.4357150   2.5129420  66.7558020
   3.5553360   1.9170560  67.4952860   4.2951150   2.5499110  66.3359320
   5.7745050   3.0666610  65.3320530   5.2480270   3.5909230  64.7285670
   6.1176390   3.6994000  65.9630260   2.3548210  11.4875970  54.3690920
   3.2499000  11.8260940  54.3909680   2.3865840  10.7655380  53.7415200
   9.3342560  10.0179640  67.0757120   8.7344550  10.0772200  66.3321040
   9.4636460   9.0784620  67.2053970  10.5744010   7.7597460  52.4126830
   9.7436970   7.8274110  52.8834060  10.7515840   8.6501580  52.1093690
  10.0300470   4.5044940  54.9161030  10.7919380   5.0741590  55.0220720
  10.0454840   3.9372140  55.6869340  11.0360440   5.3595040  59.7602960
  11.4069270   4.5762360  59.3538930  11.6762370   6.0484140  59.5820260
   8.0194200   6.7431620  65.1733280   7.2054040   7.1728780  65.4359070
   8.4268400   7.3550030  64.5602330  10.0819640   4.7979310  52.0733550
  10.3568480   5.7058190  51.9452770   9.8930380   4.7341840  53.0095540
   9.9784980   2.7348300  57.0662980   9.6028580   1.9676230  56.6344270
   9.2488100   3.1171000  57.5537910   9.3684600   1.8819820  66.7002500
   9.1370690   1.6532570  65.8000450   9.6289150   2.8019370  66.6547390
   8.0770250  11.4950220  58.7001550   8.6729320  11.1734790  58.0235970
   8.3348400  11.0222040  59.4914820  10.9443010  11.5022100  65.2512540
  10.4501290  11.8990970  64.5339670  10.3356300  10.8771310  65.6449820
   8.6282460  12.1445520  62.5299280   8.1685430  12.8961330  62.1557300
   7.9994920  11.4251990  62.4714080   1.7973680  11.3442250  62.5316390
   2.0851490  11.0896550  61.6549400   2.3096900  10.7919610  63.1221960
   1.8646040  12.2658350  69.8984590   2.7913350  12.0302620  69.9420550
   1.8496470  13.0930350  69.4170620  10.0991100  11.8083920  56.8958840
  10.2743290  11.1221660  56.2519760   9.4012670  12.3330970  56.5035510
   8.4323600  11.4928210  69.7225630   9.2248920  10.9977440  69.5151590
   8.7256750  12.1718350  70.3301240   4.5583260   2.3649150  40.6041680
   4.4777310   1.4503760  40.3333390   4.1447680   2.8616220  39.8981390
   2.6901300   4.1428170  42.4850950   1.9143400   3.6628610  42.7749520
   3.3414230   3.4633820  42.3107110   6.7108730   8.5488360  41.2650080
   6.2490260   7.7775600  41.5937250   7.5234280   8.5754430  41.7702530
   2.9372040  10.8346370  40.8854070   2.3183480  11.2903870  40.3148510
   3.7923820  10.9897830  40.4843770   2.1310290   6.8185360  42.4921110
   2.0618570   5.8775300  42.3310240   2.8930150   6.9086770  43.0643680
   3.8035390   5.7185610  38.2785980   3.1852660   6.1835060  37.7148700
   4.3158640   6.4113090  38.6955490   8.7963840   8.6781690  44.6873400
   8.1127360   9.3480800  44.6790070   9.3358130   8.8762340  43.9218260
   6.3322580  10.5225820  43.4018580   6.3449740  10.1188110  42.5340840
   5.7797800  11.2973110  43.2980010   7.6268000   7.2442040  38.4908750
   7.5164330   6.3016370  38.6158170   7.6236250   7.6057680  39.3771510
   5.7308020   5.4255660  44.7301190   6.1476810   5.2115770  43.8954650
   6.4547840   5.6828450  45.3009810   3.1688280   2.8707360  37.8471240
   2.2417560   2.8044740  38.0759710   3.3213100   3.8087490  37.7326480
   9.6770120   3.8242880  44.8217430   8.8488750   3.8935970  44.3467560
  10.2720600   4.4097190  44.3533260   7.1985570   4.4327660  38.3506490
   6.5797990   4.0947210  37.7032790   7.1810020   3.7887420  39.0585680
   7.3312230  10.6571530  46.4553280   6.8542790  11.4643720  46.2625890
   6.6474020  10.0049860  46.6079490   5.3750270   3.6714470  35.3579240
   5.8143550   2.8336900  35.2117060   6.0878690   4.3043870  35.4443380
   3.4845650   8.6110540  39.3260480   3.9241560   9.3534870  38.9115870
   3.4232540   8.8537110  40.2499440  10.9111440  10.4183470  51.5244670
  11.3871160  10.8966360  52.2033750  11.5318600  10.3500960  50.7990170
  10.3144690   7.6096320  48.6844680  10.4407750   7.3708200  47.7661860
  10.3566070   6.7780860  49.1566760   4.1761430  11.3124320  47.2539490
   4.6906100  11.2232330  48.0561920   3.3330510  11.6584020  47.5467400
   6.1515830  11.5979660  36.6823490   5.9916970  11.3082600  37.5805320
   5.9862540  10.8219790  36.1468720   5.8541960   9.1067220  35.2421490
   5.1607120   9.1044510  34.5823770   6.5964820   8.6826540  34.8115660
   5.4191890  10.7329930  39.3169980   5.8748840   9.9519310  39.6308600
   5.7584410  11.4436750  39.8611160   4.1545200   1.9918380  43.9647250
   3.4226320   2.5005190  44.3137350   3.7569540   1.1748360  43.6636030
   7.9699700   4.9709350  42.8242600   8.6898820   5.4664640  42.4338710
   7.7681520   4.2927240  42.1796470   3.3518500   5.0418410  48.7111600
   3.2855810   4.1214080  48.4569190   2.7223640   5.1393850  49.4256240
   2.1418620   6.9090650  35.9422320   2.4834320   7.6532880  35.4465640
   1.3131330   7.2221770  36.3047150   3.2835230   7.8638980  48.4615400
   3.2979770   6.9319940  48.2434310   2.5760330   7.9498740  49.1005170
   8.4172300   2.0478800  34.7314010   8.3336020   2.4793020  33.8810450
   9.1366490   2.5077150  35.1640830   9.4946440   4.5046320  47.8083980
   8.7694630   5.0975100  47.6113370  10.0221900   4.4969860  47.0097350
   9.4459550   8.9021060  37.4596140   8.8035710   8.2476680  37.7339860
   9.0590210   9.3076150  36.6836810   5.0246030   6.2306490  41.3067830
   5.3769850   5.6334620  40.6469200   4.1408360   5.9050720  41.4776080
   2.7169130   9.5056550  45.5555900   3.3611350   9.7115930  46.2329320
   3.0798570   8.7444950  45.1026750   3.9901210   7.5088900  44.2733350
   4.6323440   6.8082060  44.3865520   4.5150560   8.2887340  44.0930240
   7.8356930   7.7937520  33.9972490   7.6094510   7.0767960  34.5897130
   7.4453130   7.5449960  33.1594240   5.7638830   8.3083800  47.4769410
   6.0995070   8.8950490  48.1547330   4.8439170   8.1776510  47.7067200
   7.4173180   5.7109460  35.6586650   7.1294880   6.1722150  36.4464530
   8.2125350   5.2507230  35.9270870   2.6201180   9.2663820  34.2515810
   2.7213160   9.0627810  33.3217790   1.7202920   9.0122100  34.4563590
   7.2671870   2.7042020  40.5221990   6.3262010   2.7192250  40.6969680
   7.5815940   1.9177980  40.9682290   9.2697450   9.8750870  42.1976250
   9.3944870  10.6982040  42.6700060  10.1363010   9.6641600  41.8500400
   4.5837890   7.2608020  51.0054370   3.9776050   7.2839620  50.2650120
   4.2792000   6.5291060  51.5421620   6.0138260  10.9888310  49.6163780
   6.9660010  10.9046330  49.5664020   5.8666480  11.6530020  50.2897570
   8.9047460  10.3682520  35.1155690   8.6188970   9.9547660  34.3009870
   8.7067010  11.2970230  34.9956210   3.6097420   5.4235830  34.1603290
   3.0607520   5.8705130  34.8046030   4.2316680   4.9185080  34.6840960
   7.6632360   6.7777930  50.0925550   8.4041830   7.1153690  49.5893010
   6.9005040   6.9469990  49.5395320   1.7900180   3.4064360  33.3045690
   2.3105840   2.6913380  32.9386840   2.4368580   4.0450230  33.6046200
   6.3378020   4.8292760  48.6280760   6.7519040   4.9837840  49.4771180
   5.4029020   4.9547980  48.7906540   6.8100190   2.1688920  50.6319910
   7.3920960   1.4141240  50.5440390   6.9861960   2.6996360  49.8551390
   3.4357150   2.5129420  47.9814530   3.5553360   1.9170560  48.7209370
   4.2951150   2.5499110  47.5615830   5.7745050   3.0666610  46.5577040
   5.2480270   3.5909230  45.9542180   6.1176390   3.6994000  47.1886770
   2.3548210  11.4875970  35.5947430   3.2499000  11.8260940  35.6166190
   2.3865840  10.7655380  34.9671710   9.3342560  10.0179640  48.3013630
   8.7344550  10.0772200  47.5577550   9.4636460   9.0784620  48.4310480
  10.5744010   7.7597460  33.6383340   9.7436970   7.8274110  34.1090570
  10.7515840   8.6501580  33.3350200  10.0300470   4.5044940  36.1417540
  10.7919380   5.0741590  36.2477230  10.0454840   3.9372140  36.9125850
  11.0360440   5.3595040  40.9859470  11.4069270   4.5762360  40.5795440
  11.6762370   6.0484140  40.8076770   8.0194200   6.7431620  46.3989790
   7.2054040   7.1728780  46.6615580   8.4268400   7.3550030  45.7858840
  10.0819640   4.7979310  33.2990060  10.3568480   5.7058190  33.1709280
   9.8930380   4.7341840  34.2352050   9.9784980   2.7348300  38.2919490
   9.6028580   1.9676230  37.8600780   9.2488100   3.1171000  38.7794420
   9.3684600   1.8819820  47.9259010   9.1370690   1.6532570  47.0256960
   9.6289150   2.8019370  47.8803900   8.0770250  11.4950220  39.9258060
   8.6729320  11.1734790  39.2492480   8.3348400  11.0222040  40.7171330
  10.9443010  11.5022100  46.4769050  10.4501290  11.8990970  45.7596180
  10.3356300  10.8771310  46.8706330   8.6282460  12.1445520  43.7555790
   8.1685430  12.8961330  43.3813810   7.9994920  11.4251990  43.6970590
   1.7973680  11.3442250  43.7572900   2.0851490  11.0896550  42.8805910
   2.3096900  10.7919610  44.3478470   1.8646040  12.2658350  51.1241100
   2.7913350  12.0302620  51.1677060   1.8496470  13.0930350  50.6427130
  10.0991100  11.8083920  38.1215350  10.2743290  11.1221660  37.4776270
   9.4012670  12.3330970  37.7292020   8.4323600  11.4928210  50.9482140
   9.2248920  10.9977440  50.7408100   8.7256750  12.1718350  51.5557750
   4.5583260   2.3649150  21.8298190   4.4777310   1.4503760  21.5589900
   4.1447680   2.8616220  21.1237900   2.6901300   4.1428170  23.7107460
   1.9143400   3.6628610  24.0006030   3.3414230   3.4633820  23.5363620
   6.7108730   8.5488360  22.4906590   6.2490260   7.7775600  22.8193760
   7.5234280   8.5754430  22.9959040   2.9372040  10.8346370  22.1110580
   2.3183480  11.2903870  21.5405020   3.7923820  10.9897830  21.7100280
   2.1310290   6.8185360  23.7177620   2.0618570   5.8775300  23.5566750
   2.8930150   6.9086770  24.2900190   3.8035390   5.7185610  19.5042490
   3.1852660   6.1835060  18.9405210   4.3158640   6.4113090  19.9212000
   8.7963840   8.6781690  25.9129910   8.1127360   9.3480800  25.9046580
   9.3358130   8.8762340  25.1474770   6.3322580  10.5225820  24.6275090
   6.3449740  10.1188110  23.7597350   5.7797800  11.2973110  24.5236520
   7.6268000   7.2442040  19.7165260   7.5164330   6.3016370  19.8414680
   7.6236250   7.6057680  20.6028020   5.7308020   5.4255660  25.9557700
   6.1476810   5.2115770  25.1211160   6.4547840   5.6828450  26.5266320
   3.1688280   2.8707360  19.0727750   2.2417560   2.8044740  19.3016220
   3.3213100   3.8087490  18.9582990   9.6770120   3.8242880  26.0473940
   8.8488750   3.8935970  25.5724070  10.2720600   4.4097190  25.5789770
   7.1985570   4.4327660  19.5763000   6.5797990   4.0947210  18.9289300
   7.1810020   3.7887420  20.2842190   7.3312230  10.6571530  27.6809790
   6.8542790  11.4643720  27.4882400   6.6474020  10.0049860  27.8336000
   5.3750270   3.6714470  16.5835750   5.8143550   2.8336900  16.4373570
   6.0878690   4.3043870  16.6699890   3.4845650   8.6110540  20.5516990
   3.9241560   9.3534870  20.1372380   3.4232540   8.8537110  21.4755950
  10.9111440  10.4183470  32.7501180  11.3871160  10.8966360  33.4290260
  11.5318600  10.3500960  32.0246680  10.3144690   7.6096320  29.9101190
  10.4407750   7.3708200  28.9918370  10.3566070   6.7780860  30.3823270
   4.1761430  11.3124320  28.4796000   4.6906100  11.2232330  29.2818430
   3.3330510  11.6584020  28.7723910   6.1515830  11.5979660  17.9080000
   5.9916970  11.3082600  18.8061830   5.9862540  10.8219790  17.3725230
   5.8541960   9.1067220  16.4678000   5.1607120   9.1044510  15.8080280
   6.5964820   8.6826540  16.0372170   5.4191890  10.7329930  20.5426490
   5.8748840   9.9519310  20.8565110   5.7584410  11.4436750  21.0867670
   4.1545200   1.9918380  25.1903760   3.4226320   2.5005190  25.5393860
   3.7569540   1.1748360  24.8892540   7.9699700   4.9709350  24.0499110
   8.6898820   5.4664640  23.6595220   7.7681520   4.2927240  23.4052980
   3.3518500   5.0418410  29.9368110   3.2855810   4.1214080  29.6825700
   2.7223640   5.1393850  30.6512750   2.1418620   6.9090650  17.1678830
   2.4834320   7.6532880  16.6722150   1.3131330   7.2221770  17.5303660
   3.2835230   7.8638980  29.6871910   3.2979770   6.9319940  29.4690820
   2.5760330   7.9498740  30.3261680   8.4172300   2.0478800  15.9570520
   8.3336020   2.4793020  15.1066960   9.1366490   2.5077150  16.3897340
   9.4946440   4.5046320  29.0340490   8.7694630   5.0975100  28.8369880
  10.0221900   4.4969860  28.2353860   9.4459550   8.9021060  18.6852650
   8.8035710   8.2476680  18.9596370   9.0590210   9.3076150  17.9093320
   5.0246030   6.2306490  22.5324340   5.3769850   5.6334620  21.8725710
   4.1408360   5.9050720  22.7032590   2.7169130   9.5056550  26.7812410
   3.3611350   9.7115930  27.4585830   3.0798570   8.7444950  26.3283260
   3.9901210   7.5088900  25.4989860   4.6323440   6.8082060  25.6122030
   4.5150560   8.2887340  25.3186750   7.8356930   7.7937520  15.2229000
   7.6094510   7.0767960  15.8153640   7.4453130   7.5449960  14.3850750
   5.7638830   8.3083800  28.7025920   6.0995070   8.8950490  29.3803840
   4.8439170   8.1776510  28.9323710   7.4173180   5.7109460  16.8843160
   7.1294880   6.1722150  17.6721040   8.2125350   5.2507230  17.1527380
   2.6201180   9.2663820  15.4772320   2.7213160   9.0627810  14.5474300
   1.7202920   9.0122100  15.6820100   7.2671870   2.7042020  21.7478500
   6.3262010   2.7192250  21.9226190   7.5815940   1.9177980  22.1938800
   9.2697450   9.8750870  23.4232760   9.3944870  10.6982040  23.8956570
  10.1363010   9.6641600  23.0756910   4.5837890   7.2608020  32.2310880
   3.9776050   7.2839620  31.4906630   4.2792000   6.5291060  32.7678130
   6.0138260  10.9888310  30.8420290   6.9660010  10.9046330  30.7920530
   5.8666480  11.6530020  31.5154080   8.9047460  10.3682520  16.3412200
   8.6188970   9.9547660  15.5266380   8.7067010  11.2970230  16.2212720
   3.6097420   5.4235830  15.3859800   3.0607520   5.8705130  16.0302540
   4.2316680   4.9185080  15.9097470   7.6632360   6.7777930  31.3182060
   8.4041830   7.1153690  30.8149520   6.9005040   6.9469990  30.7651830
   1.7900180   3.4064360  14.5302200   2.3105840   2.6913380  14.1643350
   2.4368580   4.0450230  14.8302710   6.3378020   4.8292760  29.8537270
   6.7519040   4.9837840  30.7027690   5.4029020   4.9547980  30.0163050
   6.8100190   2.1688920  31.8576420   7.3920960   1.4141240  31.7696900
   6.9861960   2.6996360  31.0807900   3.4357150   2.5129420  29.2071040
   3.5553360   1.9170560  29.9465880   4.2951150   2.5499110  28.7872340
   5.7745050   3.0666610  27.7833550   5.2480270   3.5909230  27.1798690
   6.1176390   3.6994000  28.4143280   2.3548210  11.4875970  16.8203940
   3.2499000  11.8260940  16.8422700   2.3865840  10.7655380  16.1928220
   9.3342560  10.0179640  29.5270140   8.7344550  10.0772200  28.7834060
   9.4636460   9.0784620  29.6566990  10.5744010   7.7597460  14.8639850
   9.7436970   7.8274110  15.3347080  10.7515840   8.6501580  14.5606710
  10.0300470   4.5044940  17.3674050  10.7919380   5.0741590  17.4733740
  10.0454840   3.9372140  18.1382360  11.0360440   5.3595040  22.2115980
  11.4069270   4.5762360  21.8051950  11.6762370   6.0484140  22.0333280
   8.0194200   6.7431620  27.6246300   7.2054040   7.1728780  27.8872090
   8.4268400   7.3550030  27.0115350  10.0819640   4.7979310  14.5246570
  10.3568480   5.7058190  14.3965790   9.8930380   4.7341840  15.4608560
   9.9784980   2.7348300  19.5176000   9.6028580   1.9676230  19.0857290
   9.2488100   3.1171000  20.0050930   9.3684600   1.8819820  29.1515520
   9.1370690   1.6532570  28.2513470   9.6289150   2.8019370  29.1060410
   8.0770250  11.4950220  21.1514570   8.6729320  11.1734790  20.4748990
   8.3348400  11.0222040  21.9427840  10.9443010  11.5022100  27.7025560
  10.4501290  11.8990970  26.9852690  10.3356300  10.8771310  28.0962840
   8.6282460  12.1445520  24.9812300   8.1685430  12.8961330  24.6070320
   7.9994920  11.4251990  24.9227100   1.7973680  11.3442250  24.9829410
   2.0851490  11.0896550  24.1062420   2.3096900  10.7919610  25.5734980
   1.8646040  12.2658350  32.3497610   2.7913350  12.0302620  32.3933570
   1.8496470  13.0930350  31.8683640  10.0991100  11.8083920  19.3471860
  10.2743290  11.1221660  18.7032780   9.4012670  12.3330970  18.9548530
   8.4323600  11.4928210  32.1738650   9.2248920  10.9977440  31.9664610
   8.7256750  12.1718350  32.7814260   4.5583260   2.3649150   3.0554700
   4.4777310   1.4503760   2.7846410   4.1447680   2.8616220   2.3494410
   2.6901300   4.1428170   4.9363970   1.9143400   3.6628610   5.2262540
   3.3414230   3.4633820   4.7620130   6.7108730   8.5488360   3.7163100
   6.2490260   7.7775600   4.0450270   7.5234280   8.5754430   4.2215550
   2.9372040  10.8346370   3.3367090   2.3183480  11.2903870   2.7661530
   3.7923820  10.9897830   2.9356790   2.1310290   6.8185360   4.9434130
   2.0618570   5.8775300   4.7823260   2.8930150   6.9086770   5.5156700
   8.7963840   8.6781690   7.1386420   8.1127360   9.3480800   7.1303090
   9.3358130   8.8762340   6.3731280   6.3322580  10.5225820   5.8531600
   6.3449740  10.1188110   4.9853860   5.7797800  11.2973110   5.7493030
   5.7308020   5.4255660   7.1814210   6.1476810   5.2115770   6.3467670
   6.4547840   5.6828450   7.7522830   9.6770120   3.8242880   7.2730450
   8.8488750   3.8935970   6.7980580  10.2720600   4.4097190   6.8046280
   7.3312230  10.6571530   8.9066300   6.8542790  11.4643720   8.7138910
   6.6474020  10.0049860   9.0592510  10.9111440  10.4183470  13.9757690
  11.3871160  10.8966360  14.6546770  11.5318600  10.3500960  13.2503190
  10.3144690   7.6096320  11.1357700  10.4407750   7.3708200  10.2174880
  10.3566070   6.7780860  11.6079780   4.1761430  11.3124320   9.7052510
   4.6906100  11.2232330  10.5074940   3.3330510  11.6584020   9.9980420
   5.4191890  10.7329930   1.7683000   5.8748840   9.9519310   2.0821620
   5.7584410  11.4436750   2.3124180   4.1545200   1.9918380   6.4160270
   3.4226320   2.5005190   6.7650370   3.7569540   1.1748360   6.1149050
   7.9699700   4.9709350   5.2755620   8.6898820   5.4664640   4.8851730
   7.7681520   4.2927240   4.6309490   3.3518500   5.0418410  11.1624620
   3.2855810   4.1214080  10.9082210   2.7223640   5.1393850  11.8769260
   3.2835230   7.8638980  10.9128420   3.2979770   6.9319940  10.6947330
   2.5760330   7.9498740  11.5518190   9.4946440   4.5046320  10.2597000
   8.7694630   5.0975100  10.0626390  10.0221900   4.4969860   9.4610370
   5.0246030   6.2306490   3.7580850   5.3769850   5.6334620   3.0982220
   4.1408360   5.9050720   3.9289100   2.7169130   9.5056550   8.0068920
   3.3611350   9.7115930   8.6842340   3.0798570   8.7444950   7.5539770
   3.9901210   7.5088900   6.7246370   4.6323440   6.8082060   6.8378540
   4.5150560   8.2887340   6.5443260   5.7638830   8.3083800   9.9282430
   6.0995070   8.8950490  10.6060350   4.8439170   8.1776510  10.1580220
   7.2671870   2.7042020   2.9735010   6.3262010   2.7192250   3.1482700
   7.5815940   1.9177980   3.4195310   9.2697450   9.8750870   4.6489270
   9.3944870  10.6982040   5.1213080  10.1363010   9.6641600   4.3013420
   4.5837890   7.2608020  13.4567390   3.9776050   7.2839620  12.7163140
   4.2792000   6.5291060  13.9934640   6.0138260  10.9888310  12.0676800
   6.9660010  10.9046330  12.0177040   5.8666480  11.6530020  12.7410590
   7.6632360   6.7777930  12.5438570   8.4041830   7.1153690  12.0406030
   6.9005040   6.9469990  11.9908340   6.3378020   4.8292760  11.0793780
   6.7519040   4.9837840  11.9284200   5.4029020   4.9547980  11.2419560
   6.8100190   2.1688920  13.0832930   7.3920960   1.4141240  12.9953410
   6.9861960   2.6996360  12.3064410   3.4357150   2.5129420  10.4327550
   3.5553360   1.9170560  11.1722390   4.2951150   2.5499110  10.0128850
   5.7745050   3.0666610   9.0090060   5.2480270   3.5909230   8.4055200
   6.1176390   3.6994000   9.6399790   9.3342560  10.0179640  10.7526650
   8.7344550  10.0772200  10.0090570   9.4636460   9.0784620  10.8823500
  11.0360440   5.3595040   3.4372490  11.4069270   4.5762360   3.0308460
  11.6762370   6.0484140   3.2589790   8.0194200   6.7431620   8.8502810
   7.2054040   7.1728780   9.1128600   8.4268400   7.3550030   8.2371860
   9.3684600   1.8819820  10.3772030   9.1370690   1.6532570   9.4769980
   9.6289150   2.8019370  10.3316920   8.0770250  11.4950220   2.3771080
   8.6729320  11.1734790   1.7005500   8.3348400  11.0222040   3.1684350
  10.9443010  11.5022100   8.9282070  10.4501290  11.8990970   8.2109200
  10.3356300  10.8771310   9.3219350   8.6282460  12.1445520   6.2068810
   8.1685430  12.8961330   5.8326830   7.9994920  11.4251990   6.1483610
   1.7973680  11.3442250   6.2085920   2.0851490  11.0896550   5.3318930
   2.3096900  10.7919610   6.7991490   1.8646040  12.2658350  13.5754120
   2.7913350  12.0302620  13.6190080   1.8496470  13.0930350  13.0940150
   8.4323600  11.4928210  13.3995160   9.2248920  10.9977440  13.1921120
   8.7256750  12.1718350  14.0070770
  79.0939980  81.9075370 103.2059750  90.0000000  90.0000000  90.0000000
